 vasp.5.4.4.18Apr17-6-g9f103f2a35 (build May 21 2018 20:56:50) complex           
 executed on             LinuxGNU date 2021.10.15  15:42:04
 running on   12 total cores
 distrk:  each k-point on   12 cores,    1 groups
 distr:  one band on NCORES_PER_BAND=   1 cores,   12 groups


--------------------------------------------------------------------------------------------------------


 INCAR:
 POTCAR:    PAW_PBE Ni 02Aug2007                  
 POTCAR:    PAW_PBE Mn 06Sep2000                  
 POTCAR:    PAW_PBE In 08Apr2002                  

 ----------------------------------------------------------------------------- 
|                                                                             |
|           W    W    AA    RRRRR   N    N  II  N    N   GGGG   !!!           |
|           W    W   A  A   R    R  NN   N  II  NN   N  G    G  !!!           |
|           W    W  A    A  R    R  N N  N  II  N N  N  G       !!!           |
|           W WW W  AAAAAA  RRRRR   N  N N  II  N  N N  G  GGG   !            |
|           WW  WW  A    A  R   R   N   NN  II  N   NN  G    G                |
|           W    W  A    A  R    R  N    N  II  N    N   GGGG   !!!           |
|                                                                             |
|      For optimal performance we recommend to set                            |
|        NCORE= 4 - approx SQRT( number of cores)                             |
|      NCORE specifies how many cores store one orbital (NPAR=cpu/NCORE).     |
|      This setting can  greatly improve the performance of VASP for DFT.     |
|      The default,   NCORE=1            might be grossly inefficient         |
|      on modern multi-core architectures or massively parallel machines.     |
|      Do your own testing !!!!                                               |
|      Unfortunately you need to use the default for GW and RPA calculations. |
|      (for HF NCORE is supported but not extensively tested yet)             |
|                                                                             |
 ----------------------------------------------------------------------------- 

 POTCAR:    PAW_PBE Ni 02Aug2007                  
   VRHFIN =Ni:                                                                  
   LEXCH  = PE                                                                  
   EATOM  =  1077.6739 eV,   79.2068 Ry                                         
                                                                                
   TITEL  = PAW_PBE Ni 02Aug2007                                                
   LULTRA =        F    use ultrasoft PP ?                                      
   IUNSCR =        1    unscreen: 0-lin 1-nonlin 2-no                           
   RPACOR =    2.000    partial core radius                                     
   POMASS =   58.690; ZVAL   =   10.000    mass and valenz                      
   RCORE  =    2.300    outmost cutoff radius                                   
   RWIGS  =    2.430; RWIGS  =    1.286    wigner-seitz radius (au A)           
   ENMAX  =  269.532; ENMIN  =  202.149 eV                                      
   RCLOC  =    1.201    cutoff for local pot                                    
   LCOR   =        T    correct aug charges                                     
   LPAW   =        T    paw PP                                                  
   EAUG   =  544.565                                                            
   DEXC   =    0.000                                                            
   RMAX   =    2.357    core radius for proj-oper                               
   RAUG   =    1.300    factor for augmentation sphere                          
   RDEP   =    2.390    radius for radial grids                                 
   RDEPT  =    1.838    core radius for aug-charge                              
                                                                                
   Atomic configuration                                                         
    9 entries                                                                   
     n  l   j            E        occ.                                          
     1  0  0.50     -8206.4253   2.0000                                         
     2  0  0.50      -976.1748   2.0000                                         
     2  1  1.50      -839.0571   6.0000                                         
     3  0  0.50      -105.9991   2.0000                                         
     3  1  1.50       -66.4603   6.0000                                         
     3  2  2.50        -4.6458   9.0000                                         
     4  0  0.50        -4.4926   1.0000                                         
     4  1  1.50        -4.0817   0.0000                                         
     4  3  2.50        -1.3606   0.0000                                         
   Description                                                                  
     l       E           TYP  RCUT    TYP  RCUT                                 
     2     -4.6457903     23  2.300                                             
     2     -6.0063729     23  2.300                                             
     0     -4.4925590     23  2.300                                             
     0      5.0102601     23  2.300                                             
     1     -2.7211652     23  2.300                                             
     1     16.5183231     23  2.300                                             
  local pseudopotential read in
  partial core-charges read in
  partial kinetic energy density read in
  atomic valenz-charges read in
  non local Contribution for L=           2  read in
    real space projection operators read in
  non local Contribution for L=           2  read in
    real space projection operators read in
  non local Contribution for L=           0  read in
    real space projection operators read in
  non local Contribution for L=           0  read in
    real space projection operators read in
  non local Contribution for L=           1  read in
    real space projection operators read in
  non local Contribution for L=           1  read in
    real space projection operators read in
    PAW grid and wavefunctions read in

   number of l-projection  operators is LMAX  =           6
   number of lm-projection operators is LMMAX =          18

 POTCAR:    PAW_PBE Mn 06Sep2000                  
   VRHFIN =Mn: d6 s1                                                            
   LEXCH  = PE                                                                  
   EATOM  =   416.7541 eV,   30.6306 Ry                                         
                                                                                
   TITEL  = PAW_PBE Mn 06Sep2000                                                
   LULTRA =        F    use ultrasoft PP ?                                      
   IUNSCR =        1    unscreen: 0-lin 1-nonlin 2-no                           
   RPACOR =    2.000    partial core radius                                     
   POMASS =   54.938; ZVAL   =    7.000    mass and valenz                      
   RCORE  =    2.300    outmost cutoff radius                                   
   RWIGS  =    2.500; RWIGS  =    1.323    wigner-seitz radius (au A)           
   ENMAX  =  269.864; ENMIN  =  202.398 eV                                      
   RCLOC  =    1.725    cutoff for local pot                                    
   LCOR   =        T    correct aug charges                                     
   LPAW   =        T    paw PP                                                  
   EAUG   =  500.711                                                            
   DEXC   =    0.000                                                            
   RMAX   =    2.343    core radius for proj-oper                               
   RAUG   =    1.300    factor for augmentation sphere                          
   RDEP   =    2.338    radius for radial grids                                 
   RDEPT  =    1.911    core radius for aug-charge                              
                                                                                
   Atomic configuration                                                         
    9 entries                                                                   
     n  l   j            E        occ.                                          
     1  0  0.50     -6424.8288   2.0000                                         
     2  0  0.50      -739.1154   2.0000                                         
     2  1  1.50      -625.3949   6.0000                                         
     3  0  0.50       -81.6100   2.0000                                         
     3  1  1.50       -50.4667   6.0000                                         
     3  2  2.50        -3.3745   6.0000                                         
     4  0  0.50        -4.1331   1.0000                                         
     4  1  0.50        -4.0817   0.0000                                         
     4  3  2.50        -1.3606   0.0000                                         
   Description                                                                  
     l       E           TYP  RCUT    TYP  RCUT                                 
     2     -3.3744664     23  2.300                                             
     2     -4.7350490     23  2.300                                             
     0     -4.1331408     23  2.300                                             
     0      7.6656614     23  2.300                                             
     1     -2.7211652     23  2.300                                             
     1     20.4087390     23  2.300                                             
  local pseudopotential read in
  partial core-charges read in
  partial kinetic energy density read in
  atomic valenz-charges read in
  non local Contribution for L=           2  read in
    real space projection operators read in
  non local Contribution for L=           2  read in
    real space projection operators read in
  non local Contribution for L=           0  read in
    real space projection operators read in
  non local Contribution for L=           0  read in
    real space projection operators read in
  non local Contribution for L=           1  read in
    real space projection operators read in
  non local Contribution for L=           1  read in
    real space projection operators read in
    PAW grid and wavefunctions read in

   number of l-projection  operators is LMAX  =           6
   number of lm-projection operators is LMMAX =          18

 POTCAR:    PAW_PBE In 08Apr2002                  
   VRHFIN =In: s2p1                                                             
   LEXCH  = PE                                                                  
   EATOM  =    53.7908 eV,    3.9535 Ry                                         
                                                                                
   TITEL  = PAW_PBE In 08Apr2002                                                
   LULTRA =        F    use ultrasoft PP ?                                      
   IUNSCR =        1    unscreen: 0-lin 1-nonlin 2-no                           
   RPACOR =    2.400    partial core radius                                     
   POMASS =  114.820; ZVAL   =    3.000    mass and valenz                      
   RCORE  =    3.100    outmost cutoff radius                                   
   RWIGS  =    3.170; RWIGS  =    1.677    wigner-seitz radius (au A)           
   ENMAX  =   95.934; ENMIN  =   71.951 eV                                      
   ICORE  =        3    local potential                                         
   LCOR   =        T    correct aug charges                                     
   LPAW   =        T    paw PP                                                  
   EAUG   =  237.125                                                            
   DEXC   =    0.000                                                            
   RMAX   =    3.168    core radius for proj-oper                               
   RAUG   =    1.300    factor for augmentation sphere                          
   RDEP   =    3.187    radius for radial grids                                 
   RDEPT  =    2.711    core radius for aug-charge                              
                                                                                
   Atomic configuration                                                         
   13 entries                                                                   
     n  l   j            E        occ.                                          
     1  0  0.50    -27747.9169   2.0000                                         
     2  0  0.50     -4154.4438   2.0000                                         
     2  1  1.50     -3728.4305   6.0000                                         
     3  0  0.50      -788.3680   2.0000                                         
     3  1  1.50      -648.9215   6.0000                                         
     3  2  2.50      -432.5893  10.0000                                         
     4  0  0.50      -119.6363   2.0000                                         
     4  1  1.50       -78.1086   6.0000                                         
     4  2  2.50       -18.6227  10.0000                                         
     5  0  0.50        -8.2107   2.0000                                         
     5  1  0.50        -2.5185   1.0000                                         
     5  2  2.50        -1.3606   0.0000                                         
     4  3  2.50        -2.7212   0.0000                                         
   Description                                                                  
     l       E           TYP  RCUT    TYP  RCUT                                 
     0     -8.2107306     23  3.100                                             
     0     -6.1485975     23  3.100                                             
     1     -2.5184867     23  3.100                                             
     1      3.2427302     23  3.100                                             
     2     -1.3605826     23  3.100                                             
     3     -1.3605826     23  3.100                                             
  local pseudopotential read in
  partial core-charges read in
  partial kinetic energy density read in
  atomic valenz-charges read in
  non local Contribution for L=           0  read in
    real space projection operators read in
  non local Contribution for L=           0  read in
    real space projection operators read in
  non local Contribution for L=           1  read in
    real space projection operators read in
  non local Contribution for L=           1  read in
    real space projection operators read in
  non local Contribution for L=           2  read in
    real space projection operators read in
    PAW grid and wavefunctions read in

   number of l-projection  operators is LMAX  =           5
   number of lm-projection operators is LMMAX =          13

 Optimization of the real space projectors (new method)

 maximal supplied QI-value         = 16.25
 optimisation between [QCUT,QGAM] = [ 11.86, 23.89] = [ 39.41,159.82] Ry 
 Optimized for a Real-space Cutoff    1.33 Angstroem

   l    n(q)    QCUT    max X(q) W(low)/X(q) W(high)/X(q)  e(spline) 
   2      9    11.864    60.317    0.21E-03    0.51E-03    0.25E-06
   2      9    11.864    55.921    0.21E-03    0.51E-03    0.26E-06
   0      9    11.864    51.690    0.22E-03    0.30E-04    0.17E-06
   0      9    11.864    30.015    0.20E-03    0.28E-04    0.15E-06
   1      9    11.864    18.849    0.76E-04    0.33E-03    0.17E-06
   1      9    11.864    14.624    0.60E-04    0.28E-03    0.15E-06
 Optimization of the real space projectors (new method)

 maximal supplied QI-value         = 16.25
 optimisation between [QCUT,QGAM] = [ 11.86, 23.89] = [ 39.41,159.82] Ry 
 Optimized for a Real-space Cutoff    1.36 Angstroem

   l    n(q)    QCUT    max X(q) W(low)/X(q) W(high)/X(q)  e(spline) 
   2      9    11.864   110.144    0.49E-03    0.50E-03    0.21E-06
   2      9    11.864   103.200    0.49E-03    0.51E-03    0.22E-06
   0     10    11.864    68.437    0.12E-03    0.41E-04    0.21E-06
   0     10    11.864    33.971    0.11E-03    0.36E-04    0.19E-06
   1      9    11.864    17.065    0.24E-03    0.26E-03    0.93E-07
   1      9    11.864    12.540    0.19E-03    0.20E-03    0.80E-07
 Optimization of the real space projectors (new method)

 maximal supplied QI-value         = 12.09
 optimisation between [QCUT,QGAM] = [ 11.97, 23.95] = [ 40.14,160.58] Ry 
 Optimized for a Real-space Cutoff    1.63 Angstroem

   l    n(q)    QCUT    max X(q) W(low)/X(q) W(high)/X(q)  e(spline) 
   0     12    11.973   106.980    0.33E-03    0.16E-03    0.25E-05
   0     12    11.973    81.086    0.37E-03    0.18E-03    0.28E-05
   1     11    11.973    53.097    0.22E-03    0.42E-03    0.40E-05
   1     11    11.973    32.621    0.20E-03    0.40E-03    0.37E-05
   2     11    11.973     8.820    0.30E-03    0.17E-03    0.41E-06
  PAW_PBE Ni 02Aug2007                  :
 energy of atom  1       EATOM=-1077.6739
 kinetic energy error for atom=    0.0027 (will be added to EATOM!!)
  PAW_PBE Mn 06Sep2000                  :
 energy of atom  2       EATOM= -416.7541
 kinetic energy error for atom=    0.0022 (will be added to EATOM!!)
  PAW_PBE In 08Apr2002                  :
 energy of atom  3       EATOM=  -53.7908
 kinetic energy error for atom=    0.0000 (will be added to EATOM!!)


 POSCAR: Ni2MnIn                                 
  positions in direct lattice
  velocities in cartesian coordinates
 exchange correlation table for  LEXCH =        8
   RHO(1)=    0.500       N(1)  =     2000
   RHO(2)=  100.500       N(2)  =     4000



--------------------------------------------------------------------------------------------------------


 ion  position               nearest neighbor table
   1  0.250  0.268  0.268-  13 2.46  14 2.46  11 2.59  12 2.59   9 2.59  10 2.59  15 2.71  16 2.71
                             3 2.77   5 2.77   2 2.98   2 2.98
   2  0.750  0.268  0.268-  13 2.46  14 2.46  11 2.59  12 2.59   9 2.59  10 2.59  15 2.71  16 2.71
                             4 2.77   6 2.77   1 2.98   1 2.98
   3  0.250  0.732  0.268-  13 2.46  14 2.46  11 2.59  12 2.59   9 2.59  10 2.59  15 2.71  16 2.71
                             1 2.77   7 2.77   4 2.98   4 2.98
   4  0.750  0.732  0.268-  13 2.46  14 2.46  11 2.59  12 2.59   9 2.59  10 2.59  15 2.71  16 2.71
                             2 2.77   8 2.77   3 2.98   3 2.98
   5  0.250  0.268  0.732-  13 2.46  14 2.46  11 2.59  12 2.59   9 2.59  10 2.59  15 2.71  16 2.71
                             1 2.77   7 2.77   6 2.98   6 2.98
   6  0.750  0.268  0.732-  13 2.46  14 2.46  11 2.59  12 2.59   9 2.59  10 2.59  15 2.71  16 2.71
                             2 2.77   8 2.77   5 2.98   5 2.98
   7  0.250  0.732  0.732-  13 2.46  14 2.46  11 2.59  12 2.59   9 2.59  10 2.59  15 2.71  16 2.71
                             3 2.77   5 2.77   8 2.98   8 2.98
   8  0.750  0.732  0.732-  13 2.46  14 2.46  11 2.59  12 2.59   9 2.59  10 2.59  15 2.71  16 2.71
                             4 2.77   6 2.77   7 2.98   7 2.98
   9  0.500  0.500  0.000-   1 2.59   2 2.59   3 2.59   4 2.59   5 2.59   6 2.59   7 2.59   8 2.59
                            10 2.98  13 2.98  16 2.98  13 2.98  16 2.98  10 2.98
  10  0.000  0.500  0.000-   1 2.59   2 2.59   3 2.59   4 2.59   5 2.59   6 2.59   7 2.59   8 2.59
                             9 2.98  14 2.98  15 2.98  14 2.98  15 2.98   9 2.98
  11  0.000  0.000  0.500-   1 2.59   2 2.59   3 2.59   4 2.59   5 2.59   6 2.59   7 2.59   8 2.59
                            12 2.98  14 2.98  15 2.98  15 2.98  14 2.98  12 2.98
  12  0.500  0.000  0.500-   1 2.59   2 2.59   3 2.59   4 2.59   5 2.59   6 2.59   7 2.59   8 2.59
                            11 2.98  13 2.98  16 2.98  16 2.98  13 2.98  11 2.98
  13  0.500  0.500  0.500-   1 2.46   2 2.46   3 2.46   4 2.46   5 2.46   6 2.46   7 2.46   8 2.46
                             9 2.98  12 2.98  14 2.98   9 2.98  12 2.98  14 2.98
  14  0.000  0.500  0.500-   1 2.46   2 2.46   3 2.46   4 2.46   5 2.46   6 2.46   7 2.46   8 2.46
                            10 2.98  11 2.98  13 2.98  10 2.98  11 2.98  13 2.98
  15  0.000  0.000  0.000-   1 2.71   2 2.71   3 2.71   4 2.71   5 2.71   6 2.71   7 2.71   8 2.71
                            10 2.98  11 2.98  16 2.98  11 2.98  10 2.98  16 2.98
  16  0.500  0.000  0.000-   1 2.71   2 2.71   3 2.71   4 2.71   5 2.71   6 2.71   7 2.71   8 2.71
                             9 2.98  12 2.98  15 2.98  12 2.98   9 2.98  15 2.98

  LATTYP: Found a simple cubic cell.
 ALAT       =     5.9644260309
  
  Lattice vectors:
  
 A1 = (   5.9644260309,   0.0000000000,   0.0000000000)
 A2 = (   0.0000000000,   5.9644260309,   0.0000000000)
 A3 = (   0.0000000000,   0.0000000000,   5.9644260309)


Analysis of symmetry for initial positions (statically):
=====================================================================
 Subroutine PRICEL returns following result:
 
  LATTYP: Found a simple tetragonal cell.
 ALAT       =     5.9644260309
 C/A-ratio  =     0.5000000000
  
  Lattice vectors:
  
 A1 = (   0.0000000000,   5.9644260309,   0.0000000000)
 A2 = (   0.0000000000,   0.0000000000,  -5.9644260309)
 A3 = (  -2.9822130155,   0.0000000000,   0.0000000000)
 
   2 primitive cells build up your supercell.
 

 Routine SETGRP: Setting up the symmetry group for a 
 simple cubic supercell.


 Subroutine GETGRP returns: Found 16 space group operations
 (whereof 16 operations were pure point group operations)
 out of a pool of 48 trial point group operations.


The static configuration has the point symmetry D_4h.


Analysis of symmetry for dynamics (positions and initial velocities):
=====================================================================
 Subroutine PRICEL returns following result:
 
  LATTYP: Found a simple tetragonal cell.
 ALAT       =     5.9644260309
 C/A-ratio  =     0.5000000000
  
  Lattice vectors:
  
 A1 = (   0.0000000000,   5.9644260309,   0.0000000000)
 A2 = (   0.0000000000,   0.0000000000,  -5.9644260309)
 A3 = (  -2.9822130155,   0.0000000000,   0.0000000000)
 
   2 primitive cells build up your supercell.
 

 Routine SETGRP: Setting up the symmetry group for a 
 simple cubic supercell.


 Subroutine GETGRP returns: Found 16 space group operations
 (whereof 16 operations were pure point group operations)
 out of a pool of 48 trial point group operations.


The dynamic configuration has the point symmetry D_4h.


Analysis of structural, dynamic, and magnetic symmetry:
=====================================================================
 Subroutine PRICEL returns following result:
 
  LATTYP: Found a simple tetragonal cell.
 ALAT       =     5.9644260309
 C/A-ratio  =     0.5000000000
  
  Lattice vectors:
  
 A1 = (   0.0000000000,   5.9644260309,   0.0000000000)
 A2 = (   0.0000000000,   0.0000000000,  -5.9644260309)
 A3 = (  -2.9822130155,   0.0000000000,   0.0000000000)
 
   2 primitive cells build up your supercell.
 

 Routine SETGRP: Setting up the symmetry group for a 
 simple cubic supercell.


 Subroutine GETGRP returns: Found 16 space group operations
 (whereof 16 operations were pure point group operations)
 out of a pool of 48 trial point group operations.


The magnetic configuration has the point symmetry D_4h.


 Subroutine INISYM returns: Found 16 space group operations
 (whereof 16 operations are pure point group operations),
 and found     2 'primitive' translations



 KPOINTS: k-points                                

Automatic generation of k-mesh.
Space group operators:
 irot       det(A)        alpha          n_x          n_y          n_z        tau_x        tau_y        tau_z
    1     1.000000     0.000000     1.000000     0.000000     0.000000    -0.000000     0.000000    -0.000000
    2    -1.000000     0.000000     1.000000     0.000000     0.000000    -0.000000     0.000000    -0.000000
    3     1.000000   180.000000     0.000000     0.707107     0.707107    -0.000000     0.000000    -0.000000
    4    -1.000000   180.000000     0.000000     0.707107     0.707107    -0.000000     0.000000    -0.000000
    5     1.000000   180.000000     0.000000     0.000000     1.000000    -0.000000     0.000000    -0.000000
    6    -1.000000   180.000000     0.000000     0.000000     1.000000    -0.000000     0.000000    -0.000000
    7     1.000000    90.000000    -1.000000     0.000000     0.000000    -0.000000     0.000000    -0.000000
    8    -1.000000    90.000000    -1.000000     0.000000     0.000000    -0.000000     0.000000    -0.000000
    9     1.000000   180.000000     1.000000     0.000000     0.000000    -0.000000     0.000000    -0.000000
   10    -1.000000   180.000000     1.000000     0.000000     0.000000    -0.000000     0.000000    -0.000000
   11     1.000000    90.000000     1.000000     0.000000     0.000000    -0.000000     0.000000    -0.000000
   12    -1.000000    90.000000     1.000000     0.000000     0.000000    -0.000000     0.000000    -0.000000
   13     1.000000   180.000000     0.000000     1.000000     0.000000    -0.000000     0.000000    -0.000000
   14    -1.000000   180.000000     0.000000     1.000000     0.000000    -0.000000     0.000000    -0.000000
   15     1.000000   180.000000     0.000000    -0.707107     0.707107    -0.000000     0.000000    -0.000000
   16    -1.000000   180.000000     0.000000    -0.707107     0.707107    -0.000000     0.000000    -0.000000
 
 Subroutine IBZKPT returns following result:
 ===========================================
 
 Found     40 irreducible k-points:
 
 Following reciprocal coordinates:
            Coordinates               Weight
  0.000000  0.000000  0.000000      1.000000
  0.142857  0.000000  0.000000      2.000000
  0.285714  0.000000  0.000000      2.000000
  0.428571  0.000000  0.000000      2.000000
  0.000000  0.142857  0.000000      4.000000
  0.142857  0.142857  0.000000      8.000000
  0.285714  0.142857  0.000000      8.000000
  0.428571  0.142857  0.000000      8.000000
  0.000000  0.285714  0.000000      4.000000
  0.142857  0.285714  0.000000      8.000000
  0.285714  0.285714  0.000000      8.000000
  0.428571  0.285714  0.000000      8.000000
  0.000000  0.428571  0.000000      4.000000
  0.142857  0.428571  0.000000      8.000000
  0.285714  0.428571  0.000000      8.000000
  0.428571  0.428571  0.000000      8.000000
  0.000000  0.142857  0.142857      4.000000
  0.142857  0.142857  0.142857      8.000000
  0.285714  0.142857  0.142857      8.000000
  0.428571  0.142857  0.142857      8.000000
  0.000000  0.285714  0.142857      8.000000
  0.142857  0.285714  0.142857     16.000000
  0.285714  0.285714  0.142857     16.000000
  0.428571  0.285714  0.142857     16.000000
  0.000000  0.428571  0.142857      8.000000
  0.142857  0.428571  0.142857     16.000000
  0.285714  0.428571  0.142857     16.000000
  0.428571  0.428571  0.142857     16.000000
  0.000000  0.285714  0.285714      4.000000
  0.142857  0.285714  0.285714      8.000000
  0.285714  0.285714  0.285714      8.000000
  0.428571  0.285714  0.285714      8.000000
  0.000000  0.428571  0.285714      8.000000
  0.142857  0.428571  0.285714     16.000000
  0.285714  0.428571  0.285714     16.000000
  0.428571  0.428571  0.285714     16.000000
  0.000000  0.428571  0.428571      4.000000
  0.142857  0.428571  0.428571      8.000000
  0.285714  0.428571  0.428571      8.000000
  0.428571  0.428571  0.428571      8.000000
 
 Following cartesian coordinates:
            Coordinates               Weight
  0.000000  0.000000  0.000000      1.000000
  0.137961  0.000000  0.000000      2.000000
  0.275922  0.000000  0.000000      2.000000
  0.413882  0.000000  0.000000      2.000000
  0.000000  0.137961  0.000000      4.000000
  0.137961  0.137961  0.000000      8.000000
  0.275922  0.137961  0.000000      8.000000
  0.413882  0.137961  0.000000      8.000000
  0.000000  0.275922  0.000000      4.000000
  0.137961  0.275922  0.000000      8.000000
  0.275922  0.275922  0.000000      8.000000
  0.413882  0.275922  0.000000      8.000000
  0.000000  0.413882  0.000000      4.000000
  0.137961  0.413882  0.000000      8.000000
  0.275922  0.413882  0.000000      8.000000
  0.413882  0.413882  0.000000      8.000000
  0.000000  0.137961  0.137961      4.000000
  0.137961  0.137961  0.137961      8.000000
  0.275922  0.137961  0.137961      8.000000
  0.413882  0.137961  0.137961      8.000000
  0.000000  0.275922  0.137961      8.000000
  0.137961  0.275922  0.137961     16.000000
  0.275922  0.275922  0.137961     16.000000
  0.413882  0.275922  0.137961     16.000000
  0.000000  0.413882  0.137961      8.000000
  0.137961  0.413882  0.137961     16.000000
  0.275922  0.413882  0.137961     16.000000
  0.413882  0.413882  0.137961     16.000000
  0.000000  0.275922  0.275922      4.000000
  0.137961  0.275922  0.275922      8.000000
  0.275922  0.275922  0.275922      8.000000
  0.413882  0.275922  0.275922      8.000000
  0.000000  0.413882  0.275922      8.000000
  0.137961  0.413882  0.275922     16.000000
  0.275922  0.413882  0.275922     16.000000
  0.413882  0.413882  0.275922     16.000000
  0.000000  0.413882  0.413882      4.000000
  0.137961  0.413882  0.413882      8.000000
  0.275922  0.413882  0.413882      8.000000
  0.413882  0.413882  0.413882      8.000000
 


--------------------------------------------------------------------------------------------------------




 Dimension of arrays:
   k-points           NKPTS =     40   k-points in BZ     NKDIM =     40   number of bands    NBANDS=     84
   number of dos      NEDOS =    301   number of ions     NIONS =     16
   non local maximal  LDIM  =      6   non local SUM 2l+1 LMDIM =     18
   total plane-waves  NPLWV =  46656
   max r-space proj   IRMAX =   4036   max aug-charges    IRDMAX=  25002
   dimension x,y,z NGX =    36 NGY =   36 NGZ =   36
   dimension x,y,z NGXF=    72 NGYF=   72 NGZF=   72
   support grid    NGXF=    72 NGYF=   72 NGZF=   72
   ions per type =               8   6   2
   NGX,Y,Z   is equivalent  to a cutoff of  10.03, 10.03, 10.03 a.u.
   NGXF,Y,Z  is equivalent  to a cutoff of  20.07, 20.07, 20.07 a.u.

 SYSTEM =  Testrun for NiMnIn                      
 POSCAR =  Ni2MnIn                                 

 Startparameter for this run:
   NWRITE =      2    write-flag & timer
   PREC   = normal    normal or accurate (medium, high low for compatibility)
   ISTART =      0    job   : 0-new  1-cont  2-samecut
   ICHARG =      2    charge: 1-file 2-atom 10-const
   ISPIN  =      2    spin polarized calculation?
   LNONCOLLINEAR =      F non collinear calculations
   LSORBIT =      F    spin-orbit coupling
   INIWAV =      1    electr: 0-lowe 1-rand  2-diag
   LASPH  =      F    aspherical Exc in radial PAW
   METAGGA=      F    non-selfconsistent MetaGGA calc.

 Electronic Relaxation 1
   ENCUT  =  550.0 eV  40.42 Ry    6.36 a.u.  11.41 11.41 11.41*2*pi/ulx,y,z
   ENINI  =  550.0     initial cutoff
   ENAUG  =  544.6 eV  augmentation charge cutoff
   NELM   =     60;   NELMIN=  2; NELMDL= -5     # of ELM steps 
   EDIFF  = 0.1E-04   stopping-criterion for ELM
   LREAL  =      T    real-space projection
   NLSPLINE    = F    spline interpolate recip. space projectors
   LCOMPAT=      F    compatible to vasp.4.4
   GGA_COMPAT  = T    GGA compatible to vasp.4.4-vasp.4.6
   LMAXPAW     = -100 max onsite density
   LMAXMIX     =    2 max onsite mixed and CHGCAR
   VOSKOWN=      0    Vosko Wilk Nusair interpolation
   ROPT   =   -0.00050  -0.00050  -0.00050
 Ionic relaxation
   EDIFFG = -.1E-01   stopping-criterion for IOM
   NSW    =   1000    number of steps for IOM
   NBLOCK =      1;   KBLOCK =   1000    inner block; outer block 
   IBRION =      2    ionic relax: 0-MD 1-quasi-New 2-CG
   NFREE  =      1    steps in history (QN), initial steepest desc. (CG)
   ISIF   =      2    stress and relaxation
   IWAVPR =     11    prediction:  0-non 1-charg 2-wave 3-comb
   ISYM   =      2    0-nonsym 1-usesym 2-fastsym
   LCORR  =      T    Harris-Foulkes like correction to forces

   POTIM  = 0.5000    time-step for ionic-motion
   TEIN   =    0.0    initial temperature
   TEBEG  =    0.0;   TEEND  =   0.0 temperature during run
   SMASS  =  -3.00    Nose mass-parameter (am)
   estimated Nose-frequenzy (Omega)   =  0.10E-29 period in steps =****** mass=  -0.813E-27a.u.
   SCALEE = 1.0000    scale energy and forces
   NPACO  =    256;   APACO  = 16.0  distance and # of slots for P.C.
   PSTRESS=    0.0 pullay stress

  Mass of Ions in am
   POMASS =  58.69 54.94114.82
  Ionic Valenz
   ZVAL   =  10.00  7.00  3.00
  Atomic Wigner-Seitz radii
   RWIGS  =  -1.00 -1.00 -1.00
  virtual crystal weights 
   VCA    =   1.00  1.00  1.00
   NELECT =     128.0000    total number of electrons
   NUPDOWN=      -1.0000    fix difference up-down

 DOS related values:
   EMIN   =  10.00;   EMAX   =-10.00  energy-range for DOS
   EFERMI =   0.00
   ISMEAR =     0;   SIGMA  =   0.02  broadening in eV -4-tet -1-fermi 0-gaus

 Electronic relaxation 2 (details)
   IALGO  =     68    algorithm
   LDIAG  =      T    sub-space diagonalisation (order eigenvalues)
   LSUBROT=      F    optimize rotation matrix (better conditioning)
   TURBO    =      0    0=normal 1=particle mesh
   IRESTART =      0    0=no restart 2=restart with 2 vectors
   NREBOOT  =      0    no. of reboots
   NMIN     =      0    reboot dimension
   EREF     =   0.00    reference energy to select bands
   IMIX   =      4    mixing-type and parameters
     AMIX     =   0.40;   BMIX     =  1.00
     AMIX_MAG =   1.60;   BMIX_MAG =  1.00
     AMIN     =   0.10
     WC   =   100.;   INIMIX=   1;  MIXPRE=   1;  MAXMIX= -45

 Intra band minimization:
   WEIMIN = 0.0010     energy-eigenvalue tresh-hold
   EBREAK =  0.30E-07  absolut break condition
   DEPER  =   0.30     relativ break condition  

   TIME   =   0.40     timestep for ELM

  volume/ion in A,a.u.               =      13.26        89.49
  Fermi-wavevector in a.u.,A,eV,Ry     =   1.383278  2.614017 26.034180  1.913458
  Thomas-Fermi vector in A             =   2.507891

 Write flags
   LWAVE        =      F    write WAVECAR
   LDOWNSAMPLE  =      F    k-point downsampling of WAVECAR
   LCHARG       =      T    write CHGCAR
   LVTOT        =      F    write LOCPOT, total local potential
   LVHAR        =      F    write LOCPOT, Hartree potential only
   LELF         =      F    write electronic localiz. function (ELF)
   LORBIT       =     11    0 simple, 1 ext, 2 COOP (PROOUT), +10 PAW based schemes


 Dipole corrections
   LMONO  =      F    monopole corrections only (constant potential shift)
   LDIPOL =      F    correct potential (dipole corrections)
   IDIPOL =      0    1-x, 2-y, 3-z, 4-all directions 
   EPSILON=  1.0000000 bulk dielectric constant

 Exchange correlation treatment:
   GGA     =    --    GGA type
   LEXCH   =     8    internal setting for exchange type
   VOSKOWN=      0    Vosko Wilk Nusair interpolation
   LHFCALC =     F    Hartree Fock is set to
   LHFONE  =     F    Hartree Fock one center treatment
   AEXX    =    0.0000 exact exchange contribution

 Linear response parameters
   LEPSILON=     F    determine dielectric tensor
   LRPA    =     F    only Hartree local field effects (RPA)
   LNABLA  =     F    use nabla operator in PAW spheres
   LVEL    =     F    velocity operator in full k-point grid
   LINTERFAST=   F  fast interpolation
   KINTER  =     0    interpolate to denser k-point grid
   CSHIFT  =0.1000    complex shift for real part using Kramers Kronig
   OMEGAMAX=  -1.0    maximum frequency
   DEG_THRESHOLD= 0.2000000E-02 threshold for treating states as degnerate
   RTIME   =   -0.100 relaxation time in fs
  (WPLASMAI=    0.000 imaginary part of plasma frequency in eV, 0.658/RTIME)
   DFIELD  = 0.0000000 0.0000000 0.0000000 field for delta impulse in time

 Orbital magnetization related:
   ORBITALMAG=     F  switch on orbital magnetization
   LCHIMAG   =     F  perturbation theory with respect to B field
   DQ        =  0.001000  dq finite difference perturbation B field
   LLRAUG    =     F  two centre corrections for induced B field



--------------------------------------------------------------------------------------------------------


 conjugate gradient relaxation of ions
 charge density and potential will be updated during run
 spin polarized calculation
 RMM-DIIS sequential band-by-band and
  variant of blocked Davidson during initial phase
 perform sub-space diagonalisation
    before iterative eigenvector-optimisation
 modified Broyden-mixing scheme, WC =      100.0
 initial mixing is a Kerker type mixing with AMIX =  0.4000 and BMIX =      1.0000
 Hartree-type preconditioning will be used
 using additional bands           20
 real space projection scheme for non local part
 use partial core corrections
 calculate Harris-corrections to forces   (improved forces if not selfconsistent)
 use gradient corrections 
 use of overlap-Matrix (Vanderbilt PP)
 Gauss-broadening in eV      SIGMA  =   0.02


--------------------------------------------------------------------------------------------------------


  energy-cutoff  :      550.00
  volume of cell :      212.18
      direct lattice vectors                 reciprocal lattice vectors
     5.964426031  0.000000000  0.000000000     0.167660726  0.000000000  0.000000000
     0.000000000  5.964426031  0.000000000     0.000000000  0.167660726  0.000000000
     0.000000000  0.000000000  5.964426031     0.000000000  0.000000000  0.167660726

  length of vectors
     5.964426031  5.964426031  5.964426031     0.167660726  0.167660726  0.167660726



 k-points in units of 2pi/SCALE and weight: k-points                                
   0.00000000  0.00000000  0.00000000       0.003
   0.13796083  0.00000000  0.00000000       0.006
   0.27592165  0.00000000  0.00000000       0.006
   0.41388248  0.00000000  0.00000000       0.006
   0.00000000  0.13796083  0.00000000       0.012
   0.13796083  0.13796083  0.00000000       0.023
   0.27592165  0.13796083  0.00000000       0.023
   0.41388248  0.13796083  0.00000000       0.023
   0.00000000  0.27592165  0.00000000       0.012
   0.13796083  0.27592165  0.00000000       0.023
   0.27592165  0.27592165  0.00000000       0.023
   0.41388248  0.27592165  0.00000000       0.023
   0.00000000  0.41388248  0.00000000       0.012
   0.13796083  0.41388248  0.00000000       0.023
   0.27592165  0.41388248  0.00000000       0.023
   0.41388248  0.41388248  0.00000000       0.023
   0.00000000  0.13796083  0.13796083       0.012
   0.13796083  0.13796083  0.13796083       0.023
   0.27592165  0.13796083  0.13796083       0.023
   0.41388248  0.13796083  0.13796083       0.023
   0.00000000  0.27592165  0.13796083       0.023
   0.13796083  0.27592165  0.13796083       0.047
   0.27592165  0.27592165  0.13796083       0.047
   0.41388248  0.27592165  0.13796083       0.047
   0.00000000  0.41388248  0.13796083       0.023
   0.13796083  0.41388248  0.13796083       0.047
   0.27592165  0.41388248  0.13796083       0.047
   0.41388248  0.41388248  0.13796083       0.047
   0.00000000  0.27592165  0.27592165       0.012
   0.13796083  0.27592165  0.27592165       0.023
   0.27592165  0.27592165  0.27592165       0.023
   0.41388248  0.27592165  0.27592165       0.023
   0.00000000  0.41388248  0.27592165       0.023
   0.13796083  0.41388248  0.27592165       0.047
   0.27592165  0.41388248  0.27592165       0.047
   0.41388248  0.41388248  0.27592165       0.047
   0.00000000  0.41388248  0.41388248       0.012
   0.13796083  0.41388248  0.41388248       0.023
   0.27592165  0.41388248  0.41388248       0.023
   0.41388248  0.41388248  0.41388248       0.023

 k-points in reciprocal lattice and weights: k-points                                
   0.00000000  0.00000000  0.00000000       0.003
   0.14285714  0.00000000  0.00000000       0.006
   0.28571429  0.00000000  0.00000000       0.006
   0.42857143  0.00000000  0.00000000       0.006
   0.00000000  0.14285714  0.00000000       0.012
   0.14285714  0.14285714  0.00000000       0.023
   0.28571429  0.14285714  0.00000000       0.023
   0.42857143  0.14285714  0.00000000       0.023
   0.00000000  0.28571429  0.00000000       0.012
   0.14285714  0.28571429  0.00000000       0.023
   0.28571429  0.28571429  0.00000000       0.023
   0.42857143  0.28571429  0.00000000       0.023
   0.00000000  0.42857143  0.00000000       0.012
   0.14285714  0.42857143  0.00000000       0.023
   0.28571429  0.42857143  0.00000000       0.023
   0.42857143  0.42857143  0.00000000       0.023
   0.00000000  0.14285714  0.14285714       0.012
   0.14285714  0.14285714  0.14285714       0.023
   0.28571429  0.14285714  0.14285714       0.023
   0.42857143  0.14285714  0.14285714       0.023
   0.00000000  0.28571429  0.14285714       0.023
   0.14285714  0.28571429  0.14285714       0.047
   0.28571429  0.28571429  0.14285714       0.047
   0.42857143  0.28571429  0.14285714       0.047
   0.00000000  0.42857143  0.14285714       0.023
   0.14285714  0.42857143  0.14285714       0.047
   0.28571429  0.42857143  0.14285714       0.047
   0.42857143  0.42857143  0.14285714       0.047
   0.00000000  0.28571429  0.28571429       0.012
   0.14285714  0.28571429  0.28571429       0.023
   0.28571429  0.28571429  0.28571429       0.023
   0.42857143  0.28571429  0.28571429       0.023
   0.00000000  0.42857143  0.28571429       0.023
   0.14285714  0.42857143  0.28571429       0.047
   0.28571429  0.42857143  0.28571429       0.047
   0.42857143  0.42857143  0.28571429       0.047
   0.00000000  0.42857143  0.42857143       0.012
   0.14285714  0.42857143  0.42857143       0.023
   0.28571429  0.42857143  0.42857143       0.023
   0.42857143  0.42857143  0.42857143       0.023

 position of ions in fractional coordinates (direct lattice) 
   0.25000000  0.26764333  0.26764333
   0.75000000  0.26764333  0.26764333
   0.25000000  0.73235667  0.26764333
   0.75000000  0.73235667  0.26764333
   0.25000000  0.26764333  0.73235667
   0.75000000  0.26764333  0.73235667
   0.25000000  0.73235667  0.73235667
   0.75000000  0.73235667  0.73235667
   0.50000000  0.50000000  0.00000000
   0.00000000  0.50000000  0.00000000
   0.00000000  0.00000000  0.50000000
   0.50000000  0.00000000  0.50000000
   0.50000000  0.50000000  0.50000000
   0.00000000  0.50000000  0.50000000
   0.00000000  0.00000000  0.00000000
   0.50000000  0.00000000  0.00000000

 position of ions in cartesian coordinates  (Angst):
   1.49110651  1.59633885  1.59633885
   4.47331952  1.59633885  1.59633885
   1.49110651  4.36808718  1.59633885
   4.47331952  4.36808718  1.59633885
   1.49110651  1.59633885  4.36808718
   4.47331952  1.59633885  4.36808718
   1.49110651  4.36808718  4.36808718
   4.47331952  4.36808718  4.36808718
   2.98221302  2.98221302  0.00000000
   0.00000000  2.98221302  0.00000000
   0.00000000  0.00000000  2.98221302
   2.98221302  0.00000000  2.98221302
   2.98221302  2.98221302  2.98221302
   0.00000000  2.98221302  2.98221302
   0.00000000  0.00000000  0.00000000
   2.98221302  0.00000000  0.00000000



--------------------------------------------------------------------------------------------------------


 k-point  1 :   0.0000 0.0000 0.0000  plane waves:    6235
 k-point  2 :   0.1429 0.0000 0.0000  plane waves:    6211
 k-point  3 :   0.2857 0.0000 0.0000  plane waves:    6195
 k-point  4 :   0.4286 0.0000 0.0000  plane waves:    6222
 k-point  5 :   0.0000 0.1429 0.0000  plane waves:    6211
 k-point  6 :   0.1429 0.1429 0.0000  plane waves:    6226
 k-point  7 :   0.2857 0.1429 0.0000  plane waves:    6226
 k-point  8 :   0.4286 0.1429 0.0000  plane waves:    6222
 k-point  9 :   0.0000 0.2857 0.0000  plane waves:    6195
 k-point 10 :   0.1429 0.2857 0.0000  plane waves:    6226
 k-point 11 :   0.2857 0.2857 0.0000  plane waves:    6222
 k-point 12 :   0.4286 0.2857 0.0000  plane waves:    6210
 k-point 13 :   0.0000 0.4286 0.0000  plane waves:    6222
 k-point 14 :   0.1429 0.4286 0.0000  plane waves:    6222
 k-point 15 :   0.2857 0.4286 0.0000  plane waves:    6210
 k-point 16 :   0.4286 0.4286 0.0000  plane waves:    6200
 k-point 17 :   0.0000 0.1429 0.1429  plane waves:    6226
 k-point 18 :   0.1429 0.1429 0.1429  plane waves:    6235
 k-point 19 :   0.2857 0.1429 0.1429  plane waves:    6222
 k-point 20 :   0.4286 0.1429 0.1429  plane waves:    6208
 k-point 21 :   0.0000 0.2857 0.1429  plane waves:    6226
 k-point 22 :   0.1429 0.2857 0.1429  plane waves:    6222
 k-point 23 :   0.2857 0.2857 0.1429  plane waves:    6214
 k-point 24 :   0.4286 0.2857 0.1429  plane waves:    6211
 k-point 25 :   0.0000 0.4286 0.1429  plane waves:    6222
 k-point 26 :   0.1429 0.4286 0.1429  plane waves:    6208
 k-point 27 :   0.2857 0.4286 0.1429  plane waves:    6211
 k-point 28 :   0.4286 0.4286 0.1429  plane waves:    6217
 k-point 29 :   0.0000 0.2857 0.2857  plane waves:    6222
 k-point 30 :   0.1429 0.2857 0.2857  plane waves:    6214
 k-point 31 :   0.2857 0.2857 0.2857  plane waves:    6217
 k-point 32 :   0.4286 0.2857 0.2857  plane waves:    6220
 k-point 33 :   0.0000 0.4286 0.2857  plane waves:    6210
 k-point 34 :   0.1429 0.4286 0.2857  plane waves:    6211
 k-point 35 :   0.2857 0.4286 0.2857  plane waves:    6220
 k-point 36 :   0.4286 0.4286 0.2857  plane waves:    6200
 k-point 37 :   0.0000 0.4286 0.4286  plane waves:    6200
 k-point 38 :   0.1429 0.4286 0.4286  plane waves:    6217
 k-point 39 :   0.2857 0.4286 0.4286  plane waves:    6200
 k-point 40 :   0.4286 0.4286 0.4286  plane waves:    6167

 maximum and minimum number of plane-waves per node :      6235     6167

 maximum number of plane-waves:      6235
 maximum index in each direction: 
   IXMAX=   11   IYMAX=   11   IZMAX=   11
   IXMIN=  -11   IYMIN=  -11   IZMIN=  -11


 serial   3D FFT for wavefunctions
 parallel 3D FFT for charge:
    minimum data exchange during FFTs selected (reduces bandwidth)


 total amount of memory used by VASP MPI-rank0   103636. kBytes
=======================================================================

   base      :      30000. kBytes
   nonlr-proj:       6807. kBytes
   fftplans  :       1269. kBytes
   grid      :       6573. kBytes
   one-center:        497. kBytes
   wavefun   :      58490. kBytes

     INWAV:  cpu time    0.0000: real time    0.0000
 Broyden mixing: mesh for mixing (old mesh)
   NGX = 23   NGY = 23   NGZ = 23
  (NGX  = 72   NGY  = 72   NGZ  = 72)
  gives a total of  12167 points

 initial charge density was supplied:
 charge density of overlapping atoms calculated
 number of electron     128.0000000 magnetization       8.8000000
 keeping initial charge density in first step


--------------------------------------------------------------------------------------------------------


 Maximum index for non-local projection operator         3887
 Maximum index for augmentation-charges         2111 (set IRDMAX)


--------------------------------------------------------------------------------------------------------


 First call to EWALD:  gamma=   0.297
 Maximum number of real-space cells 3x 3x 3
 Maximum number of reciprocal cells 3x 3x 3

    FEWALD:  cpu time    0.0020: real time    0.0020


--------------------------------------- Iteration      1(   1)  ---------------------------------------


    POTLOK:  cpu time    0.1080: real time    0.1110
    SETDIJ:  cpu time    0.0377: real time    0.0397
     EDDAV:  cpu time   23.2819: real time   23.3639
       DOS:  cpu time    0.0036: real time    0.0036
    --------------------------------------------
      LOOP:  cpu time   23.4312: real time   23.5184

 eigenvalue-minimisations  : 13440
 total energy-change (2. order) : 0.1067160E+04  (-0.5426850E+04)
 number of electron     128.0000000 magnetization       8.8000000
 augmentation part      128.0000000 magnetization       8.8000000

 Free energy of the ion-electron system (eV)
  ---------------------------------------------------
  alpha Z        PSCENC =       530.32412750
  Ewald energy   TEWEN  =     -9167.25800801
  -Hartree energ DENC   =     -3254.77829837
  -exchange      EXHF   =         0.00000000
  -V(xc)+E(xc)   XCENC  =        78.30132002
  PAW double counting   =     10320.96726947   -10647.99417394
  entropy T*S    EENTRO =        -0.00120203
  eigenvalues    EBANDS =      1978.13653009
  atomic energy  EATOM  =     11229.46195210
  Solvation  Ediel_sol  =         0.00000000
  ---------------------------------------------------
  free energy    TOTEN  =      1067.15951682 eV

  energy without entropy =     1067.16071885  energy(sigma->0) =     1067.16011784


--------------------------------------------------------------------------------------------------------




--------------------------------------- Iteration      1(   2)  ---------------------------------------


     EDDAV:  cpu time   23.2906: real time   24.2566
       DOS:  cpu time    0.0036: real time    0.0036
    --------------------------------------------
      LOOP:  cpu time   23.2942: real time   24.2602

 eigenvalue-minimisations  : 13440
 total energy-change (2. order) :-0.1065908E+04  (-0.1032880E+04)
 number of electron     128.0000000 magnetization       8.8000000
 augmentation part      128.0000000 magnetization       8.8000000

 Free energy of the ion-electron system (eV)
  ---------------------------------------------------
  alpha Z        PSCENC =       530.32412750
  Ewald energy   TEWEN  =     -9167.25800801
  -Hartree energ DENC   =     -3254.77829837
  -exchange      EXHF   =         0.00000000
  -V(xc)+E(xc)   XCENC  =        78.30132002
  PAW double counting   =     10320.96726947   -10647.99417394
  entropy T*S    EENTRO =        -0.00220466
  eigenvalues    EBANDS =       912.22930268
  atomic energy  EATOM  =     11229.46195210
  Solvation  Ediel_sol  =         0.00000000
  ---------------------------------------------------
  free energy    TOTEN  =         1.25128678 eV

  energy without entropy =        1.25349145  energy(sigma->0) =        1.25238911


--------------------------------------------------------------------------------------------------------




--------------------------------------- Iteration      1(   3)  ---------------------------------------


     EDDAV:  cpu time   25.5454: real time   25.6604
       DOS:  cpu time    0.0037: real time    0.0037
    --------------------------------------------
      LOOP:  cpu time   25.5491: real time   25.6641

 eigenvalue-minimisations  : 15120
 total energy-change (2. order) :-0.1113664E+03  (-0.9980997E+02)
 number of electron     128.0000000 magnetization       8.8000000
 augmentation part      128.0000000 magnetization       8.8000000

 Free energy of the ion-electron system (eV)
  ---------------------------------------------------
  alpha Z        PSCENC =       530.32412750
  Ewald energy   TEWEN  =     -9167.25800801
  -Hartree energ DENC   =     -3254.77829837
  -exchange      EXHF   =         0.00000000
  -V(xc)+E(xc)   XCENC  =        78.30132002
  PAW double counting   =     10320.96726947   -10647.99417394
  entropy T*S    EENTRO =        -0.00295423
  eigenvalues    EBANDS =       800.86366424
  atomic energy  EATOM  =     11229.46195210
  Solvation  Ediel_sol  =         0.00000000
  ---------------------------------------------------
  free energy    TOTEN  =      -110.11510122 eV

  energy without entropy =     -110.11214700  energy(sigma->0) =     -110.11362411


--------------------------------------------------------------------------------------------------------




--------------------------------------- Iteration      1(   4)  ---------------------------------------


     EDDAV:  cpu time   32.7853: real time   32.9177
       DOS:  cpu time    0.0042: real time    0.0042
    --------------------------------------------
      LOOP:  cpu time   32.7895: real time   32.9220

 eigenvalue-minimisations  : 20280
 total energy-change (2. order) :-0.6994939E+01  (-0.6600094E+01)
 number of electron     128.0000000 magnetization       8.8000000
 augmentation part      128.0000000 magnetization       8.8000000

 Free energy of the ion-electron system (eV)
  ---------------------------------------------------
  alpha Z        PSCENC =       530.32412750
  Ewald energy   TEWEN  =     -9167.25800801
  -Hartree energ DENC   =     -3254.77829837
  -exchange      EXHF   =         0.00000000
  -V(xc)+E(xc)   XCENC  =        78.30132002
  PAW double counting   =     10320.96726947   -10647.99417394
  entropy T*S    EENTRO =        -0.00217990
  eigenvalues    EBANDS =       793.86795135
  atomic energy  EATOM  =     11229.46195210
  Solvation  Ediel_sol  =         0.00000000
  ---------------------------------------------------
  free energy    TOTEN  =      -117.11003979 eV

  energy without entropy =     -117.10785989  energy(sigma->0) =     -117.10894984


--------------------------------------------------------------------------------------------------------




--------------------------------------- Iteration      1(   5)  ---------------------------------------


     EDDAV:  cpu time   31.9551: real time   32.0801
       DOS:  cpu time    0.0038: real time    0.0038
    CHARGE:  cpu time    0.7141: real time    0.7150
    MIXING:  cpu time    0.0017: real time    0.0017
    --------------------------------------------
      LOOP:  cpu time   32.6747: real time   32.8006

 eigenvalue-minimisations  : 19548
 total energy-change (2. order) :-0.2317850E+00  (-0.2303832E+00)
 number of electron     128.0000040 magnetization       7.5331513
 augmentation part       60.4844132 magnetization       4.6506022

 Broyden mixing:
  rms(total) = 0.34832E+01    rms(broyden)= 0.34831E+01
  rms(prec ) = 0.53720E+01
  weight for this iteration     100.00

 Free energy of the ion-electron system (eV)
  ---------------------------------------------------
  alpha Z        PSCENC =       530.32412750
  Ewald energy   TEWEN  =     -9167.25800801
  -Hartree energ DENC   =     -3254.77829837
  -exchange      EXHF   =         0.00000000
  -V(xc)+E(xc)   XCENC  =        78.30132002
  PAW double counting   =     10320.96726947   -10647.99417394
  entropy T*S    EENTRO =        -0.00215274
  eigenvalues    EBANDS =       793.63613923
  atomic energy  EATOM  =     11229.46195210
  Solvation  Ediel_sol  =         0.00000000
  ---------------------------------------------------
  free energy    TOTEN  =      -117.34182475 eV

  energy without entropy =     -117.33967201  energy(sigma->0) =     -117.34074838


--------------------------------------------------------------------------------------------------------




--------------------------------------- Iteration      1(   6)  ---------------------------------------


    POTLOK:  cpu time    0.1093: real time    0.1218
    SETDIJ:  cpu time    0.0380: real time    0.0380
    EDDIAG:  cpu time    3.3343: real time    3.3471
  RMM-DIIS:  cpu time   10.5748: real time   10.6199
    ORTHCH:  cpu time    0.6265: real time    0.6293
       DOS:  cpu time    0.0038: real time    0.0038
    CHARGE:  cpu time    0.7360: real time    0.7388
    MIXING:  cpu time    0.0017: real time    0.0017
    --------------------------------------------
      LOOP:  cpu time   15.4243: real time   15.5004

 eigenvalue-minimisations  : 13440
 total energy-change (2. order) : 0.6899185E+01  (-0.1681342E+02)
 number of electron     128.0000108 magnetization       6.7819194
 augmentation part       69.8180991 magnetization       5.8381391

 Broyden mixing:
  rms(total) = 0.45452E+01    rms(broyden)= 0.45452E+01
  rms(prec ) = 0.62465E+01
  weight for this iteration     100.00

 eigenvalues of (default mixing * dielectric matrix)
  average eigenvalue GAMMA=   0.2416
  0.2416

 Free energy of the ion-electron system (eV)
  ---------------------------------------------------
  alpha Z        PSCENC =       530.32412750
  Ewald energy   TEWEN  =     -9167.25800801
  -Hartree energ DENC   =     -3017.12763845
  -exchange      EXHF   =         0.00000000
  -V(xc)+E(xc)   XCENC  =        65.73839543
  PAW double counting   =     11108.60237377   -11401.07181274
  entropy T*S    EENTRO =        -0.00529026
  eigenvalues    EBANDS =       540.89326089
  atomic energy  EATOM  =     11229.46195210
  Solvation  Ediel_sol  =         0.00000000
  ---------------------------------------------------
  free energy    TOTEN  =      -110.44263977 eV

  energy without entropy =     -110.43734952  energy(sigma->0) =     -110.43999464


--------------------------------------------------------------------------------------------------------




--------------------------------------- Iteration      1(   7)  ---------------------------------------


    POTLOK:  cpu time    0.0988: real time    0.0990
    SETDIJ:  cpu time    0.0364: real time    0.0364
    EDDIAG:  cpu time    3.3020: real time    3.3127
  RMM-DIIS:  cpu time   10.4298: real time   10.4696
    ORTHCH:  cpu time    0.6296: real time    0.6303
       DOS:  cpu time    0.0038: real time    0.0038
    CHARGE:  cpu time    0.7101: real time    0.7130
    MIXING:  cpu time    0.0017: real time    0.0017
    --------------------------------------------
      LOOP:  cpu time   15.2122: real time   15.2665

 eigenvalue-minimisations  : 13498
 total energy-change (2. order) :-0.1687731E+00  (-0.2941291E+01)
 number of electron     128.0000044 magnetization       6.9253683
 augmentation part       70.2904891 magnetization       3.3643137

 Broyden mixing:
  rms(total) = 0.32994E+01    rms(broyden)= 0.32993E+01
  rms(prec ) = 0.57054E+01
  weight for this iteration     100.00

 eigenvalues of (default mixing * dielectric matrix)
  average eigenvalue GAMMA=   0.4493
  0.5073  0.3912

 Free energy of the ion-electron system (eV)
  ---------------------------------------------------
  alpha Z        PSCENC =       530.32412750
  Ewald energy   TEWEN  =     -9167.25800801
  -Hartree energ DENC   =     -3008.67823183
  -exchange      EXHF   =         0.00000000
  -V(xc)+E(xc)   XCENC  =        66.23234361
  PAW double counting   =     11392.12711347   -11691.05821591
  entropy T*S    EENTRO =        -0.00225892
  eigenvalues    EBANDS =       538.23976514
  atomic energy  EATOM  =     11229.46195210
  Solvation  Ediel_sol  =         0.00000000
  ---------------------------------------------------
  free energy    TOTEN  =      -110.61141286 eV

  energy without entropy =     -110.60915394  energy(sigma->0) =     -110.61028340


--------------------------------------------------------------------------------------------------------




--------------------------------------- Iteration      1(   8)  ---------------------------------------


    POTLOK:  cpu time    0.0988: real time    0.0990
    SETDIJ:  cpu time    0.0364: real time    0.0365
    EDDIAG:  cpu time    3.3253: real time    3.3360
  RMM-DIIS:  cpu time   10.4496: real time   10.4897
    ORTHCH:  cpu time    0.6280: real time    0.6289
       DOS:  cpu time    0.0038: real time    0.0039
    CHARGE:  cpu time    0.7294: real time    0.7322
    MIXING:  cpu time    0.0017: real time    0.0017
    --------------------------------------------
      LOOP:  cpu time   15.2731: real time   15.3279

 eigenvalue-minimisations  : 13442
 total energy-change (2. order) : 0.6584150E+01  (-0.1965310E+01)
 number of electron     128.0000080 magnetization       7.5910549
 augmentation part       67.2318656 magnetization       5.8728638

 Broyden mixing:
  rms(total) = 0.15150E+01    rms(broyden)= 0.15150E+01
  rms(prec ) = 0.25988E+01
  weight for this iteration     100.00

 eigenvalues of (default mixing * dielectric matrix)
  average eigenvalue GAMMA=   0.5094
  0.8146  0.5120  0.2015

 Free energy of the ion-electron system (eV)
  ---------------------------------------------------
  alpha Z        PSCENC =       530.32412750
  Ewald energy   TEWEN  =     -9167.25800801
  -Hartree energ DENC   =     -3072.98731543
  -exchange      EXHF   =         0.00000000
  -V(xc)+E(xc)   XCENC  =        70.49604622
  PAW double counting   =     11781.31461486   -12106.88524059
  entropy T*S    EENTRO =        -0.00412806
  eigenvalues    EBANDS =       631.51068841
  atomic energy  EATOM  =     11229.46195210
  Solvation  Ediel_sol  =         0.00000000
  ---------------------------------------------------
  free energy    TOTEN  =      -104.02726301 eV

  energy without entropy =     -104.02313495  energy(sigma->0) =     -104.02519898


--------------------------------------------------------------------------------------------------------




--------------------------------------- Iteration      1(   9)  ---------------------------------------


    POTLOK:  cpu time    0.0989: real time    0.0991
    SETDIJ:  cpu time    0.0364: real time    0.0365
    EDDIAG:  cpu time    3.3418: real time    3.3580
  RMM-DIIS:  cpu time   10.5655: real time   10.6036
    ORTHCH:  cpu time    0.6284: real time    0.6312
       DOS:  cpu time    0.0038: real time    0.0038
    CHARGE:  cpu time    0.7263: real time    0.7290
    MIXING:  cpu time    0.0018: real time    0.0018
    --------------------------------------------
      LOOP:  cpu time   15.4028: real time   15.4628

 eigenvalue-minimisations  : 13564
 total energy-change (2. order) : 0.4574926E+00  (-0.2651698E+00)
 number of electron     128.0000080 magnetization       8.1919353
 augmentation part       67.1392293 magnetization       5.5972511

 Broyden mixing:
  rms(total) = 0.11353E+01    rms(broyden)= 0.11353E+01
  rms(prec ) = 0.17382E+01
  weight for this iteration     100.00

 eigenvalues of (default mixing * dielectric matrix)
  average eigenvalue GAMMA=   0.5490
  0.9548  0.6714  0.3778  0.1921

 Free energy of the ion-electron system (eV)
  ---------------------------------------------------
  alpha Z        PSCENC =       530.32412750
  Ewald energy   TEWEN  =     -9167.25800801
  -Hartree energ DENC   =     -3069.46211424
  -exchange      EXHF   =         0.00000000
  -V(xc)+E(xc)   XCENC  =        71.61038422
  PAW double counting   =     12078.31141840   -12411.56574125
  entropy T*S    EENTRO =        -0.00224130
  eigenvalues    EBANDS =       635.01045215
  atomic energy  EATOM  =     11229.46195210
  Solvation  Ediel_sol  =         0.00000000
  ---------------------------------------------------
  free energy    TOTEN  =      -103.56977045 eV

  energy without entropy =     -103.56752915  energy(sigma->0) =     -103.56864980


--------------------------------------------------------------------------------------------------------




--------------------------------------- Iteration      1(  10)  ---------------------------------------


    POTLOK:  cpu time    0.1036: real time    0.1045
    SETDIJ:  cpu time    0.0379: real time    0.0379
    EDDIAG:  cpu time    3.3789: real time    3.3900
  RMM-DIIS:  cpu time   10.4908: real time   10.5289
    ORTHCH:  cpu time    0.6286: real time    0.6293
       DOS:  cpu time    0.0036: real time    0.0037
    CHARGE:  cpu time    0.7260: real time    0.7288
    MIXING:  cpu time    0.0019: real time    0.0019
    --------------------------------------------
      LOOP:  cpu time   15.3714: real time   15.4251

 eigenvalue-minimisations  : 13492
 total energy-change (2. order) : 0.2824460E+00  (-0.1407392E+00)
 number of electron     128.0000066 magnetization       8.9292786
 augmentation part       67.8885656 magnetization       6.5075163

 Broyden mixing:
  rms(total) = 0.60765E+00    rms(broyden)= 0.60763E+00
  rms(prec ) = 0.97073E+00
  weight for this iteration     100.00

 eigenvalues of (default mixing * dielectric matrix)
  average eigenvalue GAMMA=   0.6694
  1.4745  0.9414  0.4953  0.2090  0.2269

 Free energy of the ion-electron system (eV)
  ---------------------------------------------------
  alpha Z        PSCENC =       530.32412750
  Ewald energy   TEWEN  =     -9167.25800801
  -Hartree energ DENC   =     -3055.01948349
  -exchange      EXHF   =         0.00000000
  -V(xc)+E(xc)   XCENC  =        72.28747484
  PAW double counting   =     12281.98737679   -12616.46057446
  entropy T*S    EENTRO =        -0.00225987
  eigenvalues    EBANDS =       621.39207010
  atomic energy  EATOM  =     11229.46195210
  Solvation  Ediel_sol  =         0.00000000
  ---------------------------------------------------
  free energy    TOTEN  =      -103.28732450 eV

  energy without entropy =     -103.28506463  energy(sigma->0) =     -103.28619456


--------------------------------------------------------------------------------------------------------




--------------------------------------- Iteration      1(  11)  ---------------------------------------


    POTLOK:  cpu time    0.0986: real time    0.0987
    SETDIJ:  cpu time    0.0365: real time    0.0396
    EDDIAG:  cpu time    3.3882: real time    3.4018
  RMM-DIIS:  cpu time   10.6202: real time   10.6572
    ORTHCH:  cpu time    0.6354: real time    0.6381
       DOS:  cpu time    0.0037: real time    0.0037
    CHARGE:  cpu time    0.7242: real time    0.7272
    MIXING:  cpu time    0.0020: real time    0.0020
    --------------------------------------------
      LOOP:  cpu time   15.5087: real time   15.5683

 eigenvalue-minimisations  : 13664
 total energy-change (2. order) : 0.8672484E-01  (-0.4534480E-01)
 number of electron     128.0000073 magnetization       9.1481362
 augmentation part       67.6622015 magnetization       6.5747282

 Broyden mixing:
  rms(total) = 0.26684E+00    rms(broyden)= 0.26683E+00
  rms(prec ) = 0.34519E+00
  weight for this iteration     100.00

 eigenvalues of (default mixing * dielectric matrix)
  average eigenvalue GAMMA=   0.7518
  2.0434  0.7204  0.7204  0.6020  0.2124  0.2124

 Free energy of the ion-electron system (eV)
  ---------------------------------------------------
  alpha Z        PSCENC =       530.32412750
  Ewald energy   TEWEN  =     -9167.25800801
  -Hartree energ DENC   =     -3054.98043974
  -exchange      EXHF   =         0.00000000
  -V(xc)+E(xc)   XCENC  =        74.86757009
  PAW double counting   =     12595.98527337   -12937.58094624
  entropy T*S    EENTRO =        -0.00203777
  eigenvalues    EBANDS =       625.98190905
  atomic energy  EATOM  =     11229.46195210
  Solvation  Ediel_sol  =         0.00000000
  ---------------------------------------------------
  free energy    TOTEN  =      -103.20059966 eV

  energy without entropy =     -103.19856189  energy(sigma->0) =     -103.19958077


--------------------------------------------------------------------------------------------------------




--------------------------------------- Iteration      1(  12)  ---------------------------------------


    POTLOK:  cpu time    0.0987: real time    0.0988
    SETDIJ:  cpu time    0.0368: real time    0.0369
    EDDIAG:  cpu time    3.3919: real time    3.4039
  RMM-DIIS:  cpu time   12.0474: real time   12.0962
    ORTHCH:  cpu time    0.6391: real time    0.6418
       DOS:  cpu time    0.0037: real time    0.0037
    CHARGE:  cpu time    0.7230: real time    0.7257
    MIXING:  cpu time    0.0022: real time    0.0022
    --------------------------------------------
      LOOP:  cpu time   16.9429: real time   17.0092

 eigenvalue-minimisations  : 15441
 total energy-change (2. order) :-0.6299341E-03  (-0.8923904E-02)
 number of electron     128.0000073 magnetization       9.1781756
 augmentation part       67.6594733 magnetization       6.6069645

 Broyden mixing:
  rms(total) = 0.14127E+00    rms(broyden)= 0.14127E+00
  rms(prec ) = 0.18052E+00
  weight for this iteration     100.00

 eigenvalues of (default mixing * dielectric matrix)
  average eigenvalue GAMMA=   0.8334
  2.3649  0.8799  0.8799  0.6434  0.6434  0.2111  0.2111

 Free energy of the ion-electron system (eV)
  ---------------------------------------------------
  alpha Z        PSCENC =       530.32412750
  Ewald energy   TEWEN  =     -9167.25800801
  -Hartree energ DENC   =     -3053.32777508
  -exchange      EXHF   =         0.00000000
  -V(xc)+E(xc)   XCENC  =        75.07578377
  PAW double counting   =     12743.37270937   -13087.16912125
  entropy T*S    EENTRO =        -0.00196621
  eigenvalues    EBANDS =       626.32106823
  atomic energy  EATOM  =     11229.46195210
  Solvation  Ediel_sol  =         0.00000000
  ---------------------------------------------------
  free energy    TOTEN  =      -103.20122959 eV

  energy without entropy =     -103.19926338  energy(sigma->0) =     -103.20024649


--------------------------------------------------------------------------------------------------------




--------------------------------------- Iteration      1(  13)  ---------------------------------------


    POTLOK:  cpu time    0.0988: real time    0.0989
    SETDIJ:  cpu time    0.0367: real time    0.0367
    EDDIAG:  cpu time    3.4089: real time    3.4197
  RMM-DIIS:  cpu time   11.2676: real time   11.3061
    ORTHCH:  cpu time    0.6352: real time    0.6379
       DOS:  cpu time    0.0037: real time    0.0038
    CHARGE:  cpu time    0.7235: real time    0.7264
    MIXING:  cpu time    0.0023: real time    0.0023
    --------------------------------------------
      LOOP:  cpu time   16.1767: real time   16.2318

 eigenvalue-minimisations  : 14380
 total energy-change (2. order) : 0.4723390E-02  (-0.2218550E-02)
 number of electron     128.0000074 magnetization       9.1006268
 augmentation part       67.6643746 magnetization       6.5217298

 Broyden mixing:
  rms(total) = 0.68723E-01    rms(broyden)= 0.68721E-01
  rms(prec ) = 0.71926E-01
  weight for this iteration     100.00

 eigenvalues of (default mixing * dielectric matrix)
  average eigenvalue GAMMA=   0.9109
  2.4775  1.3690  0.9014  0.9014  0.6080  0.6080  0.2109  0.2109

 Free energy of the ion-electron system (eV)
  ---------------------------------------------------
  alpha Z        PSCENC =       530.32412750
  Ewald energy   TEWEN  =     -9167.25800801
  -Hartree energ DENC   =     -3051.60576603
  -exchange      EXHF   =         0.00000000
  -V(xc)+E(xc)   XCENC  =        75.20506337
  PAW double counting   =     12833.28313514   -13178.11008510
  entropy T*S    EENTRO =        -0.00191965
  eigenvalues    EBANDS =       625.50499448
  atomic energy  EATOM  =     11229.46195210
  Solvation  Ediel_sol  =         0.00000000
  ---------------------------------------------------
  free energy    TOTEN  =      -103.19650620 eV

  energy without entropy =     -103.19458656  energy(sigma->0) =     -103.19554638


--------------------------------------------------------------------------------------------------------




--------------------------------------- Iteration      1(  14)  ---------------------------------------


    POTLOK:  cpu time    0.1043: real time    0.1109
    SETDIJ:  cpu time    0.0366: real time    0.0366
    EDDIAG:  cpu time    3.4174: real time    3.4286
  RMM-DIIS:  cpu time   11.0286: real time   11.0698
    ORTHCH:  cpu time    0.6351: real time    0.6379
       DOS:  cpu time    0.0038: real time    0.0038
    CHARGE:  cpu time    0.7213: real time    0.7238
    MIXING:  cpu time    0.0025: real time    0.0025
    --------------------------------------------
      LOOP:  cpu time   15.9495: real time   16.0139

 eigenvalue-minimisations  : 14077
 total energy-change (2. order) : 0.9412397E-04  (-0.5590135E-03)
 number of electron     128.0000073 magnetization       9.0977413
 augmentation part       67.6859833 magnetization       6.5227046

 Broyden mixing:
  rms(total) = 0.22831E-01    rms(broyden)= 0.22831E-01
  rms(prec ) = 0.25757E-01
  weight for this iteration     100.00

 eigenvalues of (default mixing * dielectric matrix)
  average eigenvalue GAMMA=   0.9795
  2.5968  1.9578  0.9679  0.9679  0.2109  0.2109  0.6394  0.6394  0.6242

 Free energy of the ion-electron system (eV)
  ---------------------------------------------------
  alpha Z        PSCENC =       530.32412750
  Ewald energy   TEWEN  =     -9167.25800801
  -Hartree energ DENC   =     -3051.14889021
  -exchange      EXHF   =         0.00000000
  -V(xc)+E(xc)   XCENC  =        75.03466556
  PAW double counting   =     12850.72920611   -13195.36533025
  entropy T*S    EENTRO =        -0.00192735
  eigenvalues    EBANDS =       625.02779248
  atomic energy  EATOM  =     11229.46195210
  Solvation  Ediel_sol  =         0.00000000
  ---------------------------------------------------
  free energy    TOTEN  =      -103.19641208 eV

  energy without entropy =     -103.19448473  energy(sigma->0) =     -103.19544840


--------------------------------------------------------------------------------------------------------




--------------------------------------- Iteration      1(  15)  ---------------------------------------


    POTLOK:  cpu time    0.0988: real time    0.0990
    SETDIJ:  cpu time    0.0366: real time    0.0367
    EDDIAG:  cpu time    3.4306: real time    3.4463
  RMM-DIIS:  cpu time   12.0824: real time   12.1262
    ORTHCH:  cpu time    0.6351: real time    0.6379
       DOS:  cpu time    0.0037: real time    0.0038
    CHARGE:  cpu time    0.7242: real time    0.7271
    MIXING:  cpu time    0.0027: real time    0.0027
    --------------------------------------------
      LOOP:  cpu time   17.0141: real time   17.0796

 eigenvalue-minimisations  : 15266
 total energy-change (2. order) : 0.3230699E-04  (-0.8552325E-04)
 number of electron     128.0000074 magnetization       9.0934013
 augmentation part       67.6750420 magnetization       6.5160690

 Broyden mixing:
  rms(total) = 0.11139E-01    rms(broyden)= 0.11138E-01
  rms(prec ) = 0.13852E-01
  weight for this iteration     100.00

 eigenvalues of (default mixing * dielectric matrix)
  average eigenvalue GAMMA=   1.0074
  2.4159  2.4159  1.0571  1.0571  0.2109  0.2109  0.7867  0.6090  0.6551  0.6551

 Free energy of the ion-electron system (eV)
  ---------------------------------------------------
  alpha Z        PSCENC =       530.32412750
  Ewald energy   TEWEN  =     -9167.25800801
  -Hartree energ DENC   =     -3051.56708384
  -exchange      EXHF   =         0.00000000
  -V(xc)+E(xc)   XCENC  =        75.12330689
  PAW double counting   =     12852.02157816   -13196.63165629
  entropy T*S    EENTRO =        -0.00192851
  eigenvalues    EBANDS =       625.33133225
  atomic energy  EATOM  =     11229.46195210
  Solvation  Ediel_sol  =         0.00000000
  ---------------------------------------------------
  free energy    TOTEN  =      -103.19637977 eV

  energy without entropy =     -103.19445126  energy(sigma->0) =     -103.19541551


--------------------------------------------------------------------------------------------------------




--------------------------------------- Iteration      1(  16)  ---------------------------------------


    POTLOK:  cpu time    0.0989: real time    0.0991
    SETDIJ:  cpu time    0.0366: real time    0.0366
    EDDIAG:  cpu time    3.4336: real time    3.4444
  RMM-DIIS:  cpu time   10.8518: real time   10.9000
    ORTHCH:  cpu time    0.6344: real time    0.6372
       DOS:  cpu time    0.0038: real time    0.0038
    CHARGE:  cpu time    0.7217: real time    0.7243
    MIXING:  cpu time    0.0027: real time    0.0027
    --------------------------------------------
      LOOP:  cpu time   15.7834: real time   15.8480

 eigenvalue-minimisations  : 13894
 total energy-change (2. order) : 0.4302218E-04  (-0.2395937E-04)
 number of electron     128.0000073 magnetization       9.1013796
 augmentation part       67.6728346 magnetization       6.5183727

 Broyden mixing:
  rms(total) = 0.72307E-02    rms(broyden)= 0.72305E-02
  rms(prec ) = 0.10302E-01
  weight for this iteration     100.00

 eigenvalues of (default mixing * dielectric matrix)
  average eigenvalue GAMMA=   1.0433
  2.6034  2.6034  1.1219  1.1219  1.0306  0.2109  0.2109  0.6876  0.6876  0.5992
  0.5992

 Free energy of the ion-electron system (eV)
  ---------------------------------------------------
  alpha Z        PSCENC =       530.32412750
  Ewald energy   TEWEN  =     -9167.25800801
  -Hartree energ DENC   =     -3051.88461682
  -exchange      EXHF   =         0.00000000
  -V(xc)+E(xc)   XCENC  =        75.11703631
  PAW double counting   =     12843.60976313   -13188.03801402
  entropy T*S    EENTRO =        -0.00193592
  eigenvalues    EBANDS =       625.47335898
  atomic energy  EATOM  =     11229.46195210
  Solvation  Ediel_sol  =         0.00000000
  ---------------------------------------------------
  free energy    TOTEN  =      -103.19633675 eV

  energy without entropy =     -103.19440083  energy(sigma->0) =     -103.19536879


--------------------------------------------------------------------------------------------------------




--------------------------------------- Iteration      1(  17)  ---------------------------------------


    POTLOK:  cpu time    0.0984: real time    0.0987
    SETDIJ:  cpu time    0.0376: real time    0.0376
    EDDIAG:  cpu time    3.4472: real time    3.4582
  RMM-DIIS:  cpu time    8.2022: real time    8.2308
    ORTHCH:  cpu time    0.6332: real time    0.6361
       DOS:  cpu time    0.0037: real time    0.0037
    CHARGE:  cpu time    0.7318: real time    0.7346
    MIXING:  cpu time    0.0030: real time    0.0030
    --------------------------------------------
      LOOP:  cpu time   13.1571: real time   13.2027

 eigenvalue-minimisations  :  9925
 total energy-change (2. order) : 0.2175693E-04  (-0.3867025E-05)
 number of electron     128.0000073 magnetization       9.1031102
 augmentation part       67.6730373 magnetization       6.5216421

 Broyden mixing:
  rms(total) = 0.17503E-02    rms(broyden)= 0.17502E-02
  rms(prec ) = 0.21824E-02
  weight for this iteration     100.00

 eigenvalues of (default mixing * dielectric matrix)
  average eigenvalue GAMMA=   1.0501
  2.5893  2.5893  1.4521  1.0727  1.0727  0.2109  0.2109  0.7843  0.7843  0.6258
  0.6258  0.5834

 Free energy of the ion-electron system (eV)
  ---------------------------------------------------
  alpha Z        PSCENC =       530.32412750
  Ewald energy   TEWEN  =     -9167.25800801
  -Hartree energ DENC   =     -3051.85434368
  -exchange      EXHF   =         0.00000000
  -V(xc)+E(xc)   XCENC  =        75.14286644
  PAW double counting   =     12846.48628220   -13190.93243405
  entropy T*S    EENTRO =        -0.00193285
  eigenvalues    EBANDS =       625.43517536
  atomic energy  EATOM  =     11229.46195210
  Solvation  Ediel_sol  =         0.00000000
  ---------------------------------------------------
  free energy    TOTEN  =      -103.19631499 eV

  energy without entropy =     -103.19438215  energy(sigma->0) =     -103.19534857


--------------------------------------------------------------------------------------------------------




--------------------------------------- Iteration      1(  18)  ---------------------------------------


    POTLOK:  cpu time    0.1128: real time    0.1151
    SETDIJ:  cpu time    0.0378: real time    0.0379
    EDDIAG:  cpu time    3.4778: real time    3.4884
  RMM-DIIS:  cpu time    6.9611: real time    6.9862
    ORTHCH:  cpu time    0.6369: real time    0.6396
       DOS:  cpu time    0.0037: real time    0.0037
    --------------------------------------------
      LOOP:  cpu time   11.2300: real time   11.2709

 eigenvalue-minimisations  :  8268
[...]
     79      10.7868      0.00000
     80      11.2544      0.00000
     81      11.5865      0.00000
     82      11.7386      0.00000
     83      12.2165      0.00000
     84      12.4476      0.00000


--------------------------------------------------------------------------------------------------------


 soft charge-density along one line, spin component           1
         0         1         2         3         4         5         6         7         8         9
 total charge-density along one line

 soft charge-density along one line, spin component           2
         0         1         2         3         4         5         6         7         8         9
 total charge-density along one line

 pseudopotential strength for first ion, spin component:           1
 -1.688  -0.000   0.000  -0.019   0.000  -2.322  -0.000   0.000
 -0.000  -1.709   0.024   0.000  -0.041  -0.000  -2.341   0.023
  0.000   0.024  -1.708  -0.000  -0.014   0.000   0.023  -2.341
 -0.019   0.000  -0.000  -1.688  -0.000  -0.019   0.000  -0.000
  0.000  -0.041  -0.014  -0.000  -1.692   0.000  -0.039  -0.014
 -2.322  -0.000   0.000  -0.019   0.000  -2.886  -0.000   0.000
 -0.000  -2.341   0.023   0.000  -0.039  -0.000  -2.904   0.021
  0.000   0.023  -2.341  -0.000  -0.014   0.000   0.021  -2.903
 -0.019   0.000  -0.000  -2.322  -0.000  -0.018   0.000  -0.000
  0.000  -0.039  -0.014  -0.000  -2.325   0.000  -0.037  -0.013
 -0.000  -0.010   0.002   0.000  -0.003  -0.000  -0.009   0.002
 -0.000  -0.018   0.004   0.000  -0.006  -0.000  -0.017   0.003
  0.000  -0.009   0.006  -0.000   0.010   0.000  -0.008   0.006
 -0.000  -0.009  -0.012   0.000  -0.000  -0.000  -0.008  -0.011
 -0.009  -0.000  -0.000  -0.009   0.000  -0.009  -0.000  -0.000
  0.000  -0.009   0.007  -0.000   0.011   0.000  -0.009   0.007
 -0.000  -0.009  -0.013   0.000  -0.000  -0.000  -0.009  -0.012
 -0.010  -0.000  -0.000  -0.010   0.000  -0.010  -0.000  -0.000
 pseudopotential strength for first ion, spin component:           2
 -1.564  -0.000   0.000   0.002   0.000  -2.203  -0.000   0.000
 -0.000  -1.582  -0.026   0.000   0.045  -0.000  -2.221  -0.025
  0.000  -0.026  -1.536  -0.000  -0.006   0.000  -0.025  -2.176
  0.002   0.000  -0.000  -1.564  -0.000   0.002   0.000  -0.000
  0.000   0.045  -0.006  -0.000  -1.529   0.000   0.044  -0.006
 -2.203  -0.000   0.000   0.002   0.000  -2.773  -0.000   0.000
 -0.000  -2.221  -0.025   0.000   0.044  -0.000  -2.790  -0.024
  0.000  -0.025  -2.176  -0.000  -0.006   0.000  -0.024  -2.746
  0.002   0.000  -0.000  -2.203  -0.000   0.002   0.000  -0.000
  0.000   0.044  -0.006  -0.000  -2.170   0.000   0.042  -0.005
 -0.000   0.008   0.001   0.000  -0.001  -0.000   0.008   0.001
 -0.000   0.014   0.001   0.000  -0.001  -0.000   0.014   0.001
  0.000  -0.005   0.004   0.000   0.008   0.000  -0.005   0.004
  0.000  -0.005  -0.009   0.000   0.000   0.000  -0.005  -0.008
 -0.004   0.000  -0.000  -0.004   0.000  -0.004   0.000  -0.000
  0.000  -0.004   0.004   0.000   0.007   0.000  -0.004   0.004
  0.000  -0.004  -0.008   0.000   0.000   0.000  -0.004  -0.008
 -0.004   0.000  -0.000  -0.004   0.000  -0.003   0.000  -0.000
 total augmentation occupancy for first ion, spin component:           1
  2.039   0.000   0.000   0.000   0.000  -0.559   0.000  -0.000  -0.029   0.000   0.000   0.000   0.000   0.000   0.017   0.000
  0.000   1.997   0.006  -0.000  -0.010  -0.000  -0.538  -0.002   0.000   0.003  -0.068   0.034   0.032   0.032   0.000  -0.011
 -0.000   0.006   2.785  -0.000  -0.021  -0.000  -0.002  -1.068   0.000   0.011  -0.018   0.001   0.037  -0.079  -0.000   0.001
  0.000   0.000   0.000   2.039   0.000  -0.029   0.000  -0.000  -0.559   0.000   0.000   0.000   0.000  -0.000   0.017  -0.000
  0.000  -0.010  -0.021  -0.000   2.810   0.000   0.003   0.011   0.000  -1.082   0.031  -0.002   0.070   0.003   0.000   0.004
 -0.559   0.000   0.000  -0.029   0.000   0.860  -0.000  -0.000   0.051   0.000   0.000   0.000  -0.000   0.000   0.009   0.000
 -0.000  -0.538  -0.002   0.000   0.003   0.000   0.847   0.006   0.000  -0.010   0.044  -0.021   0.001   0.001   0.000   0.001
 -0.000  -0.002  -1.068   0.000   0.011   0.000   0.006   1.120  -0.000  -0.004   0.014  -0.001  -0.035   0.072   0.000   0.004
 -0.029   0.000   0.000  -0.559  -0.000   0.051   0.000  -0.000   0.860  -0.000   0.000  -0.000  -0.000  -0.000   0.009  -0.000
  0.000   0.003   0.011   0.000  -1.082  -0.000  -0.010  -0.004   0.000   1.125  -0.025   0.002  -0.063  -0.001  -0.000   0.006
 -0.000  -0.068  -0.018   0.000   0.031   0.000   0.044   0.014   0.000  -0.025   2.128  -0.279   0.057   0.057  -0.000  -0.007
  0.000   0.034   0.001   0.000  -0.002  -0.000  -0.021  -0.001  -0.000   0.002  -0.279   0.047  -0.000  -0.000  -0.000  -0.000
  0.000   0.032   0.037   0.000   0.070   0.000   0.001  -0.035   0.000  -0.063   0.057  -0.000   0.256  -0.001   0.000  -0.027
 -0.000   0.032  -0.079   0.000   0.003  -0.000   0.001   0.072   0.000  -0.001   0.057  -0.000  -0.001   0.256  -0.000  -0.002
  0.017   0.000   0.000   0.017   0.000   0.009  -0.000   0.000   0.009   0.000  -0.000  -0.000   0.000   0.000   0.260  -0.000
 -0.000  -0.011   0.001   0.000   0.004  -0.000   0.001   0.004   0.000   0.006  -0.007  -0.000  -0.027  -0.002  -0.000   0.003
 -0.000  -0.011  -0.004  -0.000   0.001   0.000   0.001  -0.008   0.000  -0.000  -0.007  -0.000  -0.002  -0.027  -0.000   0.000
 -0.009   0.000   0.000  -0.009   0.000   0.000   0.000  -0.000   0.000   0.000   0.000   0.000   0.000  -0.000  -0.027   0.000
 total augmentation occupancy for first ion, spin component:           2
  0.206  -0.000   0.000  -0.263  -0.000  -0.115   0.000  -0.000   0.259   0.000  -0.000  -0.000   0.000   0.000   0.050   0.000
  0.000   0.222  -0.219  -0.000   0.379  -0.000  -0.128   0.114  -0.000  -0.197   0.151  -0.005   0.030   0.030   0.000  -0.002
  0.000  -0.219   0.310   0.000   0.044   0.000   0.116  -0.146   0.000  -0.026  -0.019  -0.003  -0.016   0.005   0.000   0.002
 -0.263  -0.000   0.000   0.206   0.000   0.259  -0.000  -0.000  -0.115   0.000   0.000  -0.000  -0.000  -0.000   0.050  -0.000
  0.000   0.379   0.044  -0.000   0.260   0.000  -0.201  -0.026   0.000  -0.115   0.033   0.006   0.004   0.016   0.000   0.000
 -0.115   0.000   0.000   0.259   0.000   0.046   0.000   0.000  -0.233   0.000  -0.000  -0.000   0.000   0.000  -0.035  -0.000
 -0.000  -0.128   0.116  -0.000  -0.201   0.000   0.056  -0.046   0.000   0.079  -0.100   0.019  -0.018  -0.018   0.000   0.003
 -0.000   0.114  -0.146   0.000  -0.026   0.000  -0.046   0.038   0.000   0.015   0.013   0.001   0.008   0.004   0.000  -0.002
  0.259  -0.000   0.000  -0.115   0.000  -0.233  -0.000  -0.000   0.046   0.000  -0.000   0.000   0.000  -0.000  -0.035  -0.000
 -0.000  -0.197  -0.026  -0.000  -0.115   0.000   0.079   0.015  -0.000   0.021  -0.022  -0.002  -0.009  -0.012  -0.000  -0.000
  0.000   0.151  -0.019  -0.000   0.033   0.000  -0.100   0.013  -0.000  -0.022  -0.040   0.009  -0.003  -0.003  -0.000   0.002
  0.000  -0.005  -0.003   0.000   0.006   0.000   0.019   0.001   0.000  -0.002   0.009  -0.001   0.004   0.004   0.000  -0.001
  0.000   0.030  -0.016  -0.000   0.004   0.000  -0.018   0.008  -0.000  -0.009  -0.003   0.004  -0.000  -0.021   0.000  -0.000
  0.000   0.030   0.005   0.000   0.016  -0.000  -0.018   0.004  -0.000  -0.012  -0.003   0.004  -0.021  -0.000  -0.000   0.003
  0.050   0.000  -0.000   0.050  -0.000  -0.035  -0.000   0.000  -0.035  -0.000   0.000   0.000  -0.000   0.000  -0.007  -0.000
  0.000  -0.002   0.002   0.000   0.000  -0.000   0.003  -0.002  -0.000  -0.000   0.002  -0.001  -0.000   0.003  -0.000  -0.000
 -0.000  -0.002  -0.001  -0.000  -0.001  -0.000   0.003   0.001   0.000   0.001   0.002  -0.001   0.003  -0.000   0.000  -0.000
 -0.002   0.000  -0.000  -0.002   0.000   0.004  -0.000   0.000   0.004   0.000   0.000   0.000   0.000   0.000   0.000   0.000


------------------------ aborting loop because EDIFF is reached ----------------------------------------





 total charge     

# of ion       s       p       d       tot
------------------------------------------
    1        0.477   0.427   8.373   9.277
    2        0.477   0.427   8.373   9.277
    3        0.476   0.423   8.382   9.281
    4        0.476   0.423   8.382   9.281
    5        0.476   0.423   8.382   9.281
    6        0.476   0.423   8.382   9.281
    7        0.477   0.427   8.373   9.277
    8        0.477   0.427   8.373   9.277
    9        0.323   0.314   4.889   5.526
   10        0.323   0.314   4.889   5.526
   11        0.330   0.323   4.952   5.605
   12        0.330   0.323   4.952   5.605
   13        0.360   0.375   4.951   5.686
   14        0.360   0.375   4.951   5.686
   15        1.238   1.642   0.285   3.165
   16        1.238   1.642   0.285   3.165
--------------------------------------------------
tot          8.314   8.708  97.172 114.193



 magnetization (x)

# of ion       s       p       d       tot
------------------------------------------
    1       -0.004  -0.002   0.174   0.168
    2       -0.004  -0.002   0.174   0.168
    3       -0.007  -0.008   0.151   0.136
    4       -0.007  -0.008   0.151   0.136
    5       -0.007  -0.008   0.151   0.136
    6       -0.007  -0.008   0.151   0.136
    7       -0.004  -0.002   0.174   0.168
    8       -0.004  -0.002   0.174   0.168
    9        0.031   0.036   3.487   3.553
   10        0.031   0.036   3.487   3.553
   11        0.030   0.043   3.535   3.607
   12        0.030   0.043   3.535   3.607
   13       -0.029  -0.044  -3.269  -3.342
   14       -0.029  -0.044  -3.269  -3.342
   15        0.008  -0.094  -0.004  -0.090
   16        0.008  -0.094  -0.004  -0.090
--------------------------------------------------
tot          0.036  -0.158   8.797   8.676

    CHARGE:  cpu time    0.7303: real time    0.7309
    FORLOC:  cpu time    0.0072: real time    0.0073
    FORNL :  cpu time    5.0203: real time    5.0251
    STRESS:  cpu time   15.0786: real time   15.0925
    FORCOR:  cpu time    0.1007: real time    0.1008
    FORHAR:  cpu time    0.0161: real time    0.0161
    MIXING:  cpu time    0.0032: real time    0.0032
    OFIELD:  cpu time    0.0000: real time    0.0000

  FORCE on cell =-STRESS in cart. coord.  units (eV):
  Direction    XX          YY          ZZ          XY          YZ          ZX
  --------------------------------------------------------------------------------------
  Alpha Z   530.32413   530.32413   530.32413
  Ewald   -2790.08225 -3188.60165 -3188.60165    -0.00000     0.00000     0.00000
  Hartree  1271.81160   889.99526   889.99526    -0.00000    -0.00000    -0.00000
  E(xc)    -670.28956  -669.75445  -669.75445    -0.00000     0.00000     0.00000
  Local    -843.02890   -54.97943   -54.97943     0.00000     0.00000    -0.00000
  n-local  -146.87068  -148.18362  -145.24577     0.23853    -0.13583    -1.09840
  augment  1583.54521  1576.92595  1576.92595     0.00000    -0.00000    -0.00000
  Kinetic  1068.70038  1051.31736  1065.67688     0.74719     1.72248    -0.15043
  Fock        0.00000     0.00000     0.00000     0.00000     0.00000     0.00000
  -------------------------------------------------------------------------------------
  Total       4.10992    -4.30776    -4.30776    -0.00000     0.00000     0.00000
  in kB      31.03402   -32.52787   -32.52787    -0.00000     0.00000     0.00000
  external pressure =      -11.34 kB  Pullay stress =        0.00 kB


 VOLUME and BASIS-vectors are now :
 -----------------------------------------------------------------------------
  energy-cutoff  :      550.00
  volume of cell :      212.18
      direct lattice vectors                 reciprocal lattice vectors
     5.964426031  0.000000000  0.000000000     0.167660726  0.000000000  0.000000000
     0.000000000  5.964426031  0.000000000     0.000000000  0.167660726  0.000000000
     0.000000000  0.000000000  5.964426031     0.000000000  0.000000000  0.167660726

  length of vectors
     5.964426031  5.964426031  5.964426031     0.167660726  0.167660726  0.167660726


 FORCES acting on ions
    electron-ion (+dipol)            ewald-force                    non-local-force                 convergence-correction
 -----------------------------------------------------------------------------------------------
   0.502E-12 0.167E+03 0.167E+03   -.355E-14 -.165E+03 -.165E+03   0.173E-17 -.213E+01 -.213E+01   0.151E-14 -.104E-02 -.104E-02
   0.181E-11 0.167E+03 0.167E+03   0.107E-13 -.165E+03 -.165E+03   0.173E-17 -.213E+01 -.213E+01   0.161E-14 -.104E-02 -.104E-02
   0.504E-12 -.167E+03 0.167E+03   -.639E-13 0.165E+03 -.165E+03   0.000E+00 0.213E+01 -.213E+01   0.529E-14 0.104E-02 -.104E-02
   0.184E-11 -.167E+03 0.167E+03   -.639E-13 0.165E+03 -.165E+03   -.173E-17 0.213E+01 -.213E+01   0.176E-13 0.104E-02 -.104E-02
   0.509E-12 0.167E+03 -.167E+03   0.711E-14 -.165E+03 0.165E+03   0.390E-17 -.213E+01 0.213E+01   0.192E-13 -.104E-02 0.104E-02
   0.182E-11 0.167E+03 -.167E+03   0.711E-14 -.165E+03 0.165E+03   0.434E-18 -.213E+01 0.213E+01   0.465E-13 -.104E-02 0.104E-02
   0.510E-12 -.167E+03 -.167E+03   -.497E-13 0.165E+03 0.165E+03   0.173E-17 0.213E+01 0.213E+01   0.401E-13 0.104E-02 0.104E-02
   0.184E-11 -.167E+03 -.167E+03   -.355E-13 0.165E+03 0.165E+03   0.173E-17 0.213E+01 0.213E+01   0.712E-13 0.104E-02 0.104E-02
   0.228E-12 0.152E-11 0.124E-11   0.844E-13 0.581E-13 -.870E-13   -.132E-22 0.000E+00 -.993E-23   -.740E-14 -.657E-13 0.709E-13
   -.817E-13 0.225E-12 -.775E-13   0.844E-13 0.582E-13 -.870E-13   0.000E+00 0.000E+00 -.265E-22   0.352E-13 -.608E-13 0.614E-13
   -.757E-13 -.519E-13 0.231E-12   0.409E-13 0.179E-15 0.168E-13   0.000E+00 0.132E-22 0.000E+00   0.512E-13 0.399E-13 -.500E-13
   0.220E-12 -.425E-13 0.269E-11   0.467E-13 0.270E-15 0.168E-13   0.000E+00 0.132E-22 0.132E-22   -.179E-13 0.447E-13 -.666E-13
   0.214E-12 0.374E-12 0.124E-11   -.591E-13 0.679E-13 0.148E-14   0.000E+00 0.000E+00 0.000E+00   -.250E-13 -.513E-13 -.899E-13
   -.895E-13 0.215E-12 0.222E-12   -.591E-13 0.680E-13 -.269E-13   0.000E+00 0.000E+00 -.132E-22   0.551E-13 -.494E-13 -.808E-13
   -.370E-13 -.148E-13 -.280E-13   0.262E-13 0.195E-13 -.560E-14   0.529E-22 -.265E-22 0.265E-22   0.578E-14 0.170E-13 0.192E-13
   0.134E-13 0.341E-13 0.532E-12   0.267E-13 0.195E-13 -.563E-14   0.529E-22 0.000E+00 0.000E+00   -.658E-14 0.176E-13 0.218E-13
 -----------------------------------------------------------------------------------------------
   0.973E-11 -.190E-10 -.238E-10   -.890E-15 -.210E-13 -.177E-12   0.954E-17 0.000E+00 0.178E-14   0.293E-12 0.197E-13 -.557E-12


 POSITION                                       TOTAL-FORCE (eV/Angst)
 -----------------------------------------------------------------------------------
      1.49111      1.59634      1.59634         0.000000      0.003442      0.003442
      4.47332      1.59634      1.59634        -0.000000      0.003442      0.003442
      1.49111      4.36809      1.59634         0.000000     -0.003442      0.003442
      4.47332      4.36809      1.59634         0.000000     -0.003442      0.003442
      1.49111      1.59634      4.36809        -0.000000      0.003442     -0.003442
      4.47332      1.59634      4.36809        -0.000000      0.003442     -0.003442
      1.49111      4.36809      4.36809         0.000000     -0.003442     -0.003442
      4.47332      4.36809      4.36809        -0.000000     -0.003442     -0.003442
      2.98221      2.98221      0.00000         0.000000      0.000000      0.000000
      0.00000      2.98221      0.00000         0.000000      0.000000     -0.000000
      0.00000      0.00000      2.98221         0.000000      0.000000     -0.000000
      2.98221      0.00000      2.98221        -0.000000      0.000000     -0.000000
      2.98221      2.98221      2.98221         0.000000      0.000000      0.000000
      0.00000      2.98221      2.98221         0.000000      0.000000     -0.000000
      0.00000      0.00000      0.00000         0.000000      0.000000     -0.000000
      2.98221      0.00000      0.00000         0.000000      0.000000     -0.000000
 -----------------------------------------------------------------------------------
    total drift:                                0.000000     -0.000000     -0.000000


--------------------------------------------------------------------------------------------------------



  FREE ENERGIE OF THE ION-ELECTRON SYSTEM (eV)
  ---------------------------------------------------
  free  energy   TOTEN  =      -103.19631572 eV

  energy  without entropy=     -103.19438468  energy(sigma->0) =     -103.19535020



--------------------------------------------------------------------------------------------------------


    POTLOK:  cpu time    0.1358: real time    0.1359


--------------------------------------------------------------------------------------------------------




--------------------------------------------------------------------------------------------------------


  
 reached required accuracy - stopping structural energy minimisation
     LOOP+:  cpu time  358.4079: real time  360.7003
    4ORBIT:  cpu time    0.0000: real time    0.0000



 total charge     

# of ion       s       p       d       tot
------------------------------------------
    1        0.477   0.427   8.373   9.277
    2        0.477   0.427   8.373   9.277
    3        0.476   0.423   8.382   9.281
    4        0.476   0.423   8.382   9.281
    5        0.476   0.423   8.382   9.281
    6        0.476   0.423   8.382   9.281
    7        0.477   0.427   8.373   9.277
    8        0.477   0.427   8.373   9.277
    9        0.323   0.314   4.889   5.526
   10        0.323   0.314   4.889   5.526
   11        0.330   0.323   4.952   5.605
   12        0.330   0.323   4.952   5.605
   13        0.360   0.375   4.951   5.686
   14        0.360   0.375   4.951   5.686
   15        1.238   1.642   0.285   3.165
   16        1.238   1.642   0.285   3.165
--------------------------------------------------
tot          8.314   8.708  97.172 114.193



 magnetization (x)

# of ion       s       p       d       tot
------------------------------------------
    1       -0.004  -0.002   0.174   0.168
    2       -0.004  -0.002   0.174   0.168
    3       -0.007  -0.008   0.151   0.136
    4       -0.007  -0.008   0.151   0.136
    5       -0.007  -0.008   0.151   0.136
    6       -0.007  -0.008   0.151   0.136
    7       -0.004  -0.002   0.174   0.168
    8       -0.004  -0.002   0.174   0.168
    9        0.031   0.036   3.487   3.553
   10        0.031   0.036   3.487   3.553
   11        0.030   0.043   3.535   3.607
   12        0.030   0.043   3.535   3.607
   13       -0.029  -0.044  -3.269  -3.342
   14       -0.029  -0.044  -3.269  -3.342
   15        0.008  -0.094  -0.004  -0.090
   16        0.008  -0.094  -0.004  -0.090
--------------------------------------------------
tot          0.036  -0.158   8.797   8.676


 total amount of memory used by VASP MPI-rank0   103636. kBytes
=======================================================================

   base      :      30000. kBytes
   nonlr-proj:       6807. kBytes
   fftplans  :       1269. kBytes
   grid      :       6573. kBytes
   one-center:        497. kBytes
   wavefun   :      58490. kBytes

  
  
 General timing and accounting informations for this job:
 ========================================================
  
                  Total CPU time used (sec):      369.049
                            User time (sec):      349.059
                          System time (sec):       19.990
                         Elapsed time (sec):      372.344
  
                   Maximum memory used (kb):      136024.
                   Average memory used (kb):           0.
  
                          Minor page faults:      8963810
                          Major page faults:           18
                 Voluntary context switches:         1766
