 vasp.5.4.4.18Apr17-6-g9f103f2a35 (build May 21 2018 20:56:50) complex           
 executed on             LinuxGNU date 2021.10.15  15:41:50
 running on   12 total cores
 distrk:  each k-point on   12 cores,    1 groups
 distr:  one band on NCORES_PER_BAND=   1 cores,   12 groups


--------------------------------------------------------------------------------------------------------


 INCAR:
 POTCAR:    PAW_PBE Ni 02Aug2007                  
 POTCAR:    PAW_PBE Mn 06Sep2000                  
 POTCAR:    PAW_PBE In 08Apr2002                  

 ----------------------------------------------------------------------------- 
|                                                                             |
|           W    W    AA    RRRRR   N    N  II  N    N   GGGG   !!!           |
|           W    W   A  A   R    R  NN   N  II  NN   N  G    G  !!!           |
|           W    W  A    A  R    R  N N  N  II  N N  N  G       !!!           |
|           W WW W  AAAAAA  RRRRR   N  N N  II  N  N N  G  GGG   !            |
|           WW  WW  A    A  R   R   N   NN  II  N   NN  G    G                |
|           W    W  A    A  R    R  N    N  II  N    N   GGGG   !!!           |
|                                                                             |
|      For optimal performance we recommend to set                            |
|        NCORE= 4 - approx SQRT( number of cores)                             |
|      NCORE specifies how many cores store one orbital (NPAR=cpu/NCORE).     |
|      This setting can  greatly improve the performance of VASP for DFT.     |
|      The default,   NCORE=1            might be grossly inefficient         |
|      on modern multi-core architectures or massively parallel machines.     |
|      Do your own testing !!!!                                               |
|      Unfortunately you need to use the default for GW and RPA calculations. |
|      (for HF NCORE is supported but not extensively tested yet)             |
|                                                                             |
 ----------------------------------------------------------------------------- 

 POTCAR:    PAW_PBE Ni 02Aug2007                  
   VRHFIN =Ni:                                                                  
   LEXCH  = PE                                                                  
   EATOM  =  1077.6739 eV,   79.2068 Ry                                         
                                                                                
   TITEL  = PAW_PBE Ni 02Aug2007                                                
   LULTRA =        F    use ultrasoft PP ?                                      
   IUNSCR =        1    unscreen: 0-lin 1-nonlin 2-no                           
   RPACOR =    2.000    partial core radius                                     
   POMASS =   58.690; ZVAL   =   10.000    mass and valenz                      
   RCORE  =    2.300    outmost cutoff radius                                   
   RWIGS  =    2.430; RWIGS  =    1.286    wigner-seitz radius (au A)           
   ENMAX  =  269.532; ENMIN  =  202.149 eV                                      
   RCLOC  =    1.201    cutoff for local pot                                    
   LCOR   =        T    correct aug charges                                     
   LPAW   =        T    paw PP                                                  
   EAUG   =  544.565                                                            
   DEXC   =    0.000                                                            
   RMAX   =    2.357    core radius for proj-oper                               
   RAUG   =    1.300    factor for augmentation sphere                          
   RDEP   =    2.390    radius for radial grids                                 
   RDEPT  =    1.838    core radius for aug-charge                              
                                                                                
   Atomic configuration                                                         
    9 entries                                                                   
     n  l   j            E        occ.                                          
     1  0  0.50     -8206.4253   2.0000                                         
     2  0  0.50      -976.1748   2.0000                                         
     2  1  1.50      -839.0571   6.0000                                         
     3  0  0.50      -105.9991   2.0000                                         
     3  1  1.50       -66.4603   6.0000                                         
     3  2  2.50        -4.6458   9.0000                                         
     4  0  0.50        -4.4926   1.0000                                         
     4  1  1.50        -4.0817   0.0000                                         
     4  3  2.50        -1.3606   0.0000                                         
   Description                                                                  
     l       E           TYP  RCUT    TYP  RCUT                                 
     2     -4.6457903     23  2.300                                             
     2     -6.0063729     23  2.300                                             
     0     -4.4925590     23  2.300                                             
     0      5.0102601     23  2.300                                             
     1     -2.7211652     23  2.300                                             
     1     16.5183231     23  2.300                                             
  local pseudopotential read in
  partial core-charges read in
  partial kinetic energy density read in
  atomic valenz-charges read in
  non local Contribution for L=           2  read in
    real space projection operators read in
  non local Contribution for L=           2  read in
    real space projection operators read in
  non local Contribution for L=           0  read in
    real space projection operators read in
  non local Contribution for L=           0  read in
    real space projection operators read in
  non local Contribution for L=           1  read in
    real space projection operators read in
  non local Contribution for L=           1  read in
    real space projection operators read in
    PAW grid and wavefunctions read in

   number of l-projection  operators is LMAX  =           6
   number of lm-projection operators is LMMAX =          18

 POTCAR:    PAW_PBE Mn 06Sep2000                  
   VRHFIN =Mn: d6 s1                                                            
   LEXCH  = PE                                                                  
   EATOM  =   416.7541 eV,   30.6306 Ry                                         
                                                                                
   TITEL  = PAW_PBE Mn 06Sep2000                                                
   LULTRA =        F    use ultrasoft PP ?                                      
   IUNSCR =        1    unscreen: 0-lin 1-nonlin 2-no                           
   RPACOR =    2.000    partial core radius                                     
   POMASS =   54.938; ZVAL   =    7.000    mass and valenz                      
   RCORE  =    2.300    outmost cutoff radius                                   
   RWIGS  =    2.500; RWIGS  =    1.323    wigner-seitz radius (au A)           
   ENMAX  =  269.864; ENMIN  =  202.398 eV                                      
   RCLOC  =    1.725    cutoff for local pot                                    
   LCOR   =        T    correct aug charges                                     
   LPAW   =        T    paw PP                                                  
   EAUG   =  500.711                                                            
   DEXC   =    0.000                                                            
   RMAX   =    2.343    core radius for proj-oper                               
   RAUG   =    1.300    factor for augmentation sphere                          
   RDEP   =    2.338    radius for radial grids                                 
   RDEPT  =    1.911    core radius for aug-charge                              
                                                                                
   Atomic configuration                                                         
    9 entries                                                                   
     n  l   j            E        occ.                                          
     1  0  0.50     -6424.8288   2.0000                                         
     2  0  0.50      -739.1154   2.0000                                         
     2  1  1.50      -625.3949   6.0000                                         
     3  0  0.50       -81.6100   2.0000                                         
     3  1  1.50       -50.4667   6.0000                                         
     3  2  2.50        -3.3745   6.0000                                         
     4  0  0.50        -4.1331   1.0000                                         
     4  1  0.50        -4.0817   0.0000                                         
     4  3  2.50        -1.3606   0.0000                                         
   Description                                                                  
     l       E           TYP  RCUT    TYP  RCUT                                 
     2     -3.3744664     23  2.300                                             
     2     -4.7350490     23  2.300                                             
     0     -4.1331408     23  2.300                                             
     0      7.6656614     23  2.300                                             
     1     -2.7211652     23  2.300                                             
     1     20.4087390     23  2.300                                             
  local pseudopotential read in
  partial core-charges read in
  partial kinetic energy density read in
  atomic valenz-charges read in
  non local Contribution for L=           2  read in
    real space projection operators read in
  non local Contribution for L=           2  read in
    real space projection operators read in
  non local Contribution for L=           0  read in
    real space projection operators read in
  non local Contribution for L=           0  read in
    real space projection operators read in
  non local Contribution for L=           1  read in
    real space projection operators read in
  non local Contribution for L=           1  read in
    real space projection operators read in
    PAW grid and wavefunctions read in

   number of l-projection  operators is LMAX  =           6
   number of lm-projection operators is LMMAX =          18

 POTCAR:    PAW_PBE In 08Apr2002                  
   VRHFIN =In: s2p1                                                             
   LEXCH  = PE                                                                  
   EATOM  =    53.7908 eV,    3.9535 Ry                                         
                                                                                
   TITEL  = PAW_PBE In 08Apr2002                                                
   LULTRA =        F    use ultrasoft PP ?                                      
   IUNSCR =        1    unscreen: 0-lin 1-nonlin 2-no                           
   RPACOR =    2.400    partial core radius                                     
   POMASS =  114.820; ZVAL   =    3.000    mass and valenz                      
   RCORE  =    3.100    outmost cutoff radius                                   
   RWIGS  =    3.170; RWIGS  =    1.677    wigner-seitz radius (au A)           
   ENMAX  =   95.934; ENMIN  =   71.951 eV                                      
   ICORE  =        3    local potential                                         
   LCOR   =        T    correct aug charges                                     
   LPAW   =        T    paw PP                                                  
   EAUG   =  237.125                                                            
   DEXC   =    0.000                                                            
   RMAX   =    3.168    core radius for proj-oper                               
   RAUG   =    1.300    factor for augmentation sphere                          
   RDEP   =    3.187    radius for radial grids                                 
   RDEPT  =    2.711    core radius for aug-charge                              
                                                                                
   Atomic configuration                                                         
   13 entries                                                                   
     n  l   j            E        occ.                                          
     1  0  0.50    -27747.9169   2.0000                                         
     2  0  0.50     -4154.4438   2.0000                                         
     2  1  1.50     -3728.4305   6.0000                                         
     3  0  0.50      -788.3680   2.0000                                         
     3  1  1.50      -648.9215   6.0000                                         
     3  2  2.50      -432.5893  10.0000                                         
     4  0  0.50      -119.6363   2.0000                                         
     4  1  1.50       -78.1086   6.0000                                         
     4  2  2.50       -18.6227  10.0000                                         
     5  0  0.50        -8.2107   2.0000                                         
     5  1  0.50        -2.5185   1.0000                                         
     5  2  2.50        -1.3606   0.0000                                         
     4  3  2.50        -2.7212   0.0000                                         
   Description                                                                  
     l       E           TYP  RCUT    TYP  RCUT                                 
     0     -8.2107306     23  3.100                                             
     0     -6.1485975     23  3.100                                             
     1     -2.5184867     23  3.100                                             
     1      3.2427302     23  3.100                                             
     2     -1.3605826     23  3.100                                             
     3     -1.3605826     23  3.100                                             
  local pseudopotential read in
  partial core-charges read in
  partial kinetic energy density read in
  atomic valenz-charges read in
  non local Contribution for L=           0  read in
    real space projection operators read in
  non local Contribution for L=           0  read in
    real space projection operators read in
  non local Contribution for L=           1  read in
    real space projection operators read in
  non local Contribution for L=           1  read in
    real space projection operators read in
  non local Contribution for L=           2  read in
    real space projection operators read in
    PAW grid and wavefunctions read in

   number of l-projection  operators is LMAX  =           5
   number of lm-projection operators is LMMAX =          13

 Optimization of the real space projectors (new method)

 maximal supplied QI-value         = 16.25
 optimisation between [QCUT,QGAM] = [ 11.86, 23.89] = [ 39.41,159.82] Ry 
 Optimized for a Real-space Cutoff    1.33 Angstroem

   l    n(q)    QCUT    max X(q) W(low)/X(q) W(high)/X(q)  e(spline) 
   2      9    11.864    60.317    0.21E-03    0.51E-03    0.25E-06
   2      9    11.864    55.921    0.21E-03    0.51E-03    0.26E-06
   0      9    11.864    51.690    0.22E-03    0.30E-04    0.17E-06
   0      9    11.864    30.015    0.20E-03    0.28E-04    0.15E-06
   1      9    11.864    18.849    0.76E-04    0.33E-03    0.17E-06
   1      9    11.864    14.624    0.60E-04    0.28E-03    0.15E-06
 Optimization of the real space projectors (new method)

 maximal supplied QI-value         = 16.25
 optimisation between [QCUT,QGAM] = [ 11.86, 23.89] = [ 39.41,159.82] Ry 
 Optimized for a Real-space Cutoff    1.36 Angstroem

   l    n(q)    QCUT    max X(q) W(low)/X(q) W(high)/X(q)  e(spline) 
   2      9    11.864   110.144    0.49E-03    0.50E-03    0.21E-06
   2      9    11.864   103.200    0.49E-03    0.51E-03    0.22E-06
   0     10    11.864    68.437    0.12E-03    0.41E-04    0.21E-06
   0     10    11.864    33.971    0.11E-03    0.36E-04    0.19E-06
   1      9    11.864    17.065    0.24E-03    0.26E-03    0.93E-07
   1      9    11.864    12.540    0.19E-03    0.20E-03    0.80E-07
 Optimization of the real space projectors (new method)

 maximal supplied QI-value         = 12.09
 optimisation between [QCUT,QGAM] = [ 11.97, 23.95] = [ 40.14,160.58] Ry 
 Optimized for a Real-space Cutoff    1.63 Angstroem

   l    n(q)    QCUT    max X(q) W(low)/X(q) W(high)/X(q)  e(spline) 
   0     12    11.973   106.980    0.33E-03    0.16E-03    0.25E-05
   0     12    11.973    81.086    0.37E-03    0.18E-03    0.28E-05
   1     11    11.973    53.097    0.22E-03    0.42E-03    0.40E-05
   1     11    11.973    32.621    0.20E-03    0.40E-03    0.37E-05
   2     11    11.973     8.820    0.30E-03    0.17E-03    0.41E-06
  PAW_PBE Ni 02Aug2007                  :
 energy of atom  1       EATOM=-1077.6739
 kinetic energy error for atom=    0.0027 (will be added to EATOM!!)
  PAW_PBE Mn 06Sep2000                  :
 energy of atom  2       EATOM= -416.7541
 kinetic energy error for atom=    0.0022 (will be added to EATOM!!)
  PAW_PBE In 08Apr2002                  :
 energy of atom  3       EATOM=  -53.7908
 kinetic energy error for atom=    0.0000 (will be added to EATOM!!)


 POSCAR: Ni2MnIn                                 
  positions in direct lattice
  velocities in cartesian coordinates
 exchange correlation table for  LEXCH =        8
   RHO(1)=    0.500       N(1)  =     2000
   RHO(2)=  100.500       N(2)  =     4000



--------------------------------------------------------------------------------------------------------


 ion  position               nearest neighbor table
   1  0.250  0.267  0.264-  13 2.48  14 2.48   9 2.58  10 2.58  12 2.60  11 2.60  16 2.69  15 2.70
                             3 2.78   5 2.82   2 2.99   2 2.99
   2  0.750  0.267  0.264-  13 2.48  14 2.48   9 2.58  10 2.58  12 2.60  11 2.60  16 2.69  15 2.70
                             4 2.78   6 2.82   1 2.99   1 2.99
   3  0.250  0.733  0.264-  13 2.48  14 2.48   9 2.58  10 2.58  12 2.60  11 2.60  16 2.69  15 2.70
                             1 2.78   7 2.82   4 2.99   4 2.99
   4  0.750  0.733  0.264-  13 2.48  14 2.48   9 2.58  10 2.58  12 2.60  11 2.60  16 2.69  15 2.70
                             2 2.78   8 2.82   3 2.99   3 2.99
   5  0.250  0.267  0.736-  13 2.48  14 2.48   9 2.58  10 2.58  12 2.60  11 2.60  16 2.69  15 2.70
                             7 2.78   1 2.82   6 2.99   6 2.99
   6  0.750  0.267  0.736-  13 2.48  14 2.48   9 2.58  10 2.58  12 2.60  11 2.60  16 2.69  15 2.70
                             8 2.78   2 2.82   5 2.99   5 2.99
   7  0.250  0.733  0.736-  13 2.48  14 2.48   9 2.58  10 2.58  12 2.60  11 2.60  16 2.69  15 2.70
                             5 2.78   3 2.82   8 2.99   8 2.99
   8  0.750  0.733  0.736-  13 2.48  14 2.48   9 2.58  10 2.58  12 2.60  11 2.60  16 2.69  15 2.70
                             6 2.78   4 2.82   7 2.99   7 2.99
   9  0.500  0.500  0.000-   1 2.58   2 2.58   3 2.58   4 2.58   5 2.58   6 2.58   7 2.58   8 2.58
                            10 2.99  13 2.99  16 2.99  13 2.99  16 2.99  10 2.99
  10  0.000  0.500  0.000-   1 2.58   2 2.58   3 2.58   4 2.58   5 2.58   6 2.58   7 2.58   8 2.58
                             9 2.99  14 2.99  15 2.99  14 2.99  15 2.99   9 2.99
  11  0.000  0.000  0.500-   1 2.60   2 2.60   3 2.60   4 2.60   5 2.60   6 2.60   7 2.60   8 2.60
                            12 2.99  14 2.99  15 2.99  15 2.99  14 2.99  12 2.99
  12  0.500  0.000  0.500-   1 2.60   2 2.60   3 2.60   4 2.60   5 2.60   6 2.60   7 2.60   8 2.60
                            11 2.99  13 2.99  16 2.99  16 2.99  13 2.99  11 2.99
  13  0.500  0.500  0.500-   1 2.48   2 2.48   3 2.48   4 2.48   5 2.48   6 2.48   7 2.48   8 2.48
                             9 2.99  12 2.99  14 2.99   9 2.99  12 2.99  14 2.99
  14  0.000  0.500  0.500-   1 2.48   2 2.48   3 2.48   4 2.48   5 2.48   6 2.48   7 2.48   8 2.48
                            10 2.99  11 2.99  13 2.99  10 2.99  11 2.99  13 2.99
  15  0.000  0.000  0.000-   1 2.70   2 2.70   3 2.70   4 2.70   5 2.70   6 2.70   7 2.70   8 2.70
                            10 2.99  11 2.99  16 2.99  11 2.99  10 2.99  16 2.99
  16  0.500  0.000  0.000-   1 2.69   2 2.69   3 2.69   4 2.69   5 2.69   6 2.69   7 2.69   8 2.69
                             9 2.99  12 2.99  15 2.99  12 2.99   9 2.99  15 2.99

  LATTYP: Found a simple cubic cell.
 ALAT       =     5.9729177783
  
  Lattice vectors:
  
 A1 = (   5.9729177783,   0.0000000000,   0.0000000000)
 A2 = (   0.0000000000,   5.9729177783,   0.0000000000)
 A3 = (   0.0000000000,   0.0000000000,   5.9729177783)


Analysis of symmetry for initial positions (statically):
=====================================================================
 Subroutine PRICEL returns:
 Original cell was already a primitive cell.
 

 Routine SETGRP: Setting up the symmetry group for a 
 simple cubic supercell.


 Subroutine GETGRP returns: Found  8 space group operations
 (whereof  8 operations were pure point group operations)
 out of a pool of 48 trial point group operations.


The static configuration has the point symmetry D_2h.


Analysis of symmetry for dynamics (positions and initial velocities):
=====================================================================
 Subroutine PRICEL returns:
 Original cell was already a primitive cell.
 

 Routine SETGRP: Setting up the symmetry group for a 
 simple cubic supercell.


 Subroutine GETGRP returns: Found  8 space group operations
 (whereof  8 operations were pure point group operations)
 out of a pool of 48 trial point group operations.


The dynamic configuration has the point symmetry D_2h.


Analysis of structural, dynamic, and magnetic symmetry:
=====================================================================
 Subroutine PRICEL returns:
 Original cell was already a primitive cell.
 

 Routine SETGRP: Setting up the symmetry group for a 
 simple cubic supercell.


 Subroutine GETGRP returns: Found  8 space group operations
 (whereof  8 operations were pure point group operations)
 out of a pool of 48 trial point group operations.


The magnetic configuration has the point symmetry D_2h.


 Subroutine INISYM returns: Found  8 space group operations
 (whereof  8 operations are pure point group operations),
 and found     1 'primitive' translations



 KPOINTS: k-points                                

Automatic generation of k-mesh.
Space group operators:
 irot       det(A)        alpha          n_x          n_y          n_z        tau_x        tau_y        tau_z
    1     1.000000     0.000000     1.000000     0.000000     0.000000     0.000000     0.000000     0.000000
    2    -1.000000     0.000000     1.000000     0.000000     0.000000     0.000000     0.000000     0.000000
    3     1.000000   180.000000     0.000000     0.000000     1.000000     0.000000     0.000000     0.000000
    4    -1.000000   180.000000     0.000000     0.000000     1.000000     0.000000     0.000000     0.000000
    5     1.000000   180.000000     1.000000     0.000000     0.000000     0.000000     0.000000     0.000000
    6    -1.000000   180.000000     1.000000     0.000000     0.000000     0.000000     0.000000     0.000000
    7     1.000000   180.000000     0.000000     1.000000     0.000000     0.000000     0.000000     0.000000
    8    -1.000000   180.000000     0.000000     1.000000     0.000000     0.000000     0.000000     0.000000
 
 Subroutine IBZKPT returns following result:
 ===========================================
 
 Found     64 irreducible k-points:
 
 Following reciprocal coordinates:
            Coordinates               Weight
  0.000000  0.000000  0.000000      1.000000
  0.142857  0.000000  0.000000      2.000000
  0.285714  0.000000  0.000000      2.000000
  0.428571  0.000000  0.000000      2.000000
  0.000000  0.142857  0.000000      2.000000
  0.142857  0.142857  0.000000      4.000000
  0.285714  0.142857  0.000000      4.000000
  0.428571  0.142857  0.000000      4.000000
  0.000000  0.285714  0.000000      2.000000
  0.142857  0.285714  0.000000      4.000000
  0.285714  0.285714  0.000000      4.000000
  0.428571  0.285714  0.000000      4.000000
  0.000000  0.428571  0.000000      2.000000
  0.142857  0.428571  0.000000      4.000000
  0.285714  0.428571  0.000000      4.000000
  0.428571  0.428571  0.000000      4.000000
  0.000000  0.000000  0.142857      2.000000
  0.142857  0.000000  0.142857      4.000000
  0.285714  0.000000  0.142857      4.000000
  0.428571  0.000000  0.142857      4.000000
  0.000000  0.142857  0.142857      4.000000
  0.142857  0.142857  0.142857      8.000000
  0.285714  0.142857  0.142857      8.000000
  0.428571  0.142857  0.142857      8.000000
  0.000000  0.285714  0.142857      4.000000
  0.142857  0.285714  0.142857      8.000000
  0.285714  0.285714  0.142857      8.000000
  0.428571  0.285714  0.142857      8.000000
  0.000000  0.428571  0.142857      4.000000
  0.142857  0.428571  0.142857      8.000000
  0.285714  0.428571  0.142857      8.000000
  0.428571  0.428571  0.142857      8.000000
  0.000000  0.000000  0.285714      2.000000
  0.142857  0.000000  0.285714      4.000000
  0.285714  0.000000  0.285714      4.000000
  0.428571  0.000000  0.285714      4.000000
  0.000000  0.142857  0.285714      4.000000
  0.142857  0.142857  0.285714      8.000000
  0.285714  0.142857  0.285714      8.000000
  0.428571  0.142857  0.285714      8.000000
  0.000000  0.285714  0.285714      4.000000
  0.142857  0.285714  0.285714      8.000000
  0.285714  0.285714  0.285714      8.000000
  0.428571  0.285714  0.285714      8.000000
  0.000000  0.428571  0.285714      4.000000
  0.142857  0.428571  0.285714      8.000000
  0.285714  0.428571  0.285714      8.000000
  0.428571  0.428571  0.285714      8.000000
  0.000000  0.000000  0.428571      2.000000
  0.142857  0.000000  0.428571      4.000000
  0.285714  0.000000  0.428571      4.000000
  0.428571  0.000000  0.428571      4.000000
  0.000000  0.142857  0.428571      4.000000
  0.142857  0.142857  0.428571      8.000000
  0.285714  0.142857  0.428571      8.000000
  0.428571  0.142857  0.428571      8.000000
  0.000000  0.285714  0.428571      4.000000
  0.142857  0.285714  0.428571      8.000000
  0.285714  0.285714  0.428571      8.000000
  0.428571  0.285714  0.428571      8.000000
  0.000000  0.428571  0.428571      4.000000
  0.142857  0.428571  0.428571      8.000000
  0.285714  0.428571  0.428571      8.000000
  0.428571  0.428571  0.428571      8.000000
 
 Following cartesian coordinates:
            Coordinates               Weight
  0.000000  0.000000  0.000000      1.000000
  0.137765  0.000000  0.000000      2.000000
  0.275529  0.000000  0.000000      2.000000
  0.413294  0.000000  0.000000      2.000000
  0.000000  0.137765  0.000000      2.000000
  0.137765  0.137765  0.000000      4.000000
  0.275529  0.137765  0.000000      4.000000
  0.413294  0.137765  0.000000      4.000000
  0.000000  0.275529  0.000000      2.000000
  0.137765  0.275529  0.000000      4.000000
  0.275529  0.275529  0.000000      4.000000
  0.413294  0.275529  0.000000      4.000000
  0.000000  0.413294  0.000000      2.000000
  0.137765  0.413294  0.000000      4.000000
  0.275529  0.413294  0.000000      4.000000
  0.413294  0.413294  0.000000      4.000000
  0.000000  0.000000  0.137765      2.000000
  0.137765  0.000000  0.137765      4.000000
  0.275529  0.000000  0.137765      4.000000
  0.413294  0.000000  0.137765      4.000000
  0.000000  0.137765  0.137765      4.000000
  0.137765  0.137765  0.137765      8.000000
  0.275529  0.137765  0.137765      8.000000
  0.413294  0.137765  0.137765      8.000000
  0.000000  0.275529  0.137765      4.000000
  0.137765  0.275529  0.137765      8.000000
  0.275529  0.275529  0.137765      8.000000
  0.413294  0.275529  0.137765      8.000000
  0.000000  0.413294  0.137765      4.000000
  0.137765  0.413294  0.137765      8.000000
  0.275529  0.413294  0.137765      8.000000
  0.413294  0.413294  0.137765      8.000000
  0.000000  0.000000  0.275529      2.000000
  0.137765  0.000000  0.275529      4.000000
  0.275529  0.000000  0.275529      4.000000
  0.413294  0.000000  0.275529      4.000000
  0.000000  0.137765  0.275529      4.000000
  0.137765  0.137765  0.275529      8.000000
  0.275529  0.137765  0.275529      8.000000
  0.413294  0.137765  0.275529      8.000000
  0.000000  0.275529  0.275529      4.000000
  0.137765  0.275529  0.275529      8.000000
  0.275529  0.275529  0.275529      8.000000
  0.413294  0.275529  0.275529      8.000000
  0.000000  0.413294  0.275529      4.000000
  0.137765  0.413294  0.275529      8.000000
  0.275529  0.413294  0.275529      8.000000
  0.413294  0.413294  0.275529      8.000000
  0.000000  0.000000  0.413294      2.000000
  0.137765  0.000000  0.413294      4.000000
  0.275529  0.000000  0.413294      4.000000
  0.413294  0.000000  0.413294      4.000000
  0.000000  0.137765  0.413294      4.000000
  0.137765  0.137765  0.413294      8.000000
  0.275529  0.137765  0.413294      8.000000
  0.413294  0.137765  0.413294      8.000000
  0.000000  0.275529  0.413294      4.000000
  0.137765  0.275529  0.413294      8.000000
  0.275529  0.275529  0.413294      8.000000
  0.413294  0.275529  0.413294      8.000000
  0.000000  0.413294  0.413294      4.000000
  0.137765  0.413294  0.413294      8.000000
  0.275529  0.413294  0.413294      8.000000
  0.413294  0.413294  0.413294      8.000000
 


--------------------------------------------------------------------------------------------------------




 Dimension of arrays:
   k-points           NKPTS =     64   k-points in BZ     NKDIM =     64   number of bands    NBANDS=     84
   number of dos      NEDOS =    301   number of ions     NIONS =     16
   non local maximal  LDIM  =      6   non local SUM 2l+1 LMDIM =     18
   total plane-waves  NPLWV =  46656
   max r-space proj   IRMAX =   4019   max aug-charges    IRDMAX=  24897
   dimension x,y,z NGX =    36 NGY =   36 NGZ =   36
   dimension x,y,z NGXF=    72 NGYF=   72 NGZF=   72
   support grid    NGXF=    72 NGYF=   72 NGZF=   72
   ions per type =               8   6   2
   NGX,Y,Z   is equivalent  to a cutoff of  10.02, 10.02, 10.02 a.u.
   NGXF,Y,Z  is equivalent  to a cutoff of  20.04, 20.04, 20.04 a.u.

 SYSTEM =  Testrun for NiMnIn                      
 POSCAR =  Ni2MnIn                                 

 Startparameter for this run:
   NWRITE =      2    write-flag & timer
   PREC   = normal    normal or accurate (medium, high low for compatibility)
   ISTART =      0    job   : 0-new  1-cont  2-samecut
   ICHARG =      2    charge: 1-file 2-atom 10-const
   ISPIN  =      2    spin polarized calculation?
   LNONCOLLINEAR =      F non collinear calculations
   LSORBIT =      F    spin-orbit coupling
   INIWAV =      1    electr: 0-lowe 1-rand  2-diag
   LASPH  =      F    aspherical Exc in radial PAW
   METAGGA=      F    non-selfconsistent MetaGGA calc.

 Electronic Relaxation 1
   ENCUT  =  550.0 eV  40.42 Ry    6.36 a.u.  11.42 11.42 11.42*2*pi/ulx,y,z
   ENINI  =  550.0     initial cutoff
   ENAUG  =  544.6 eV  augmentation charge cutoff
   NELM   =     60;   NELMIN=  2; NELMDL= -5     # of ELM steps 
   EDIFF  = 0.1E-04   stopping-criterion for ELM
   LREAL  =      T    real-space projection
   NLSPLINE    = F    spline interpolate recip. space projectors
   LCOMPAT=      F    compatible to vasp.4.4
   GGA_COMPAT  = T    GGA compatible to vasp.4.4-vasp.4.6
   LMAXPAW     = -100 max onsite density
   LMAXMIX     =    2 max onsite mixed and CHGCAR
   VOSKOWN=      0    Vosko Wilk Nusair interpolation
   ROPT   =   -0.00050  -0.00050  -0.00050
 Ionic relaxation
   EDIFFG = -.1E-01   stopping-criterion for IOM
   NSW    =   1000    number of steps for IOM
   NBLOCK =      1;   KBLOCK =   1000    inner block; outer block 
   IBRION =      2    ionic relax: 0-MD 1-quasi-New 2-CG
   NFREE  =      1    steps in history (QN), initial steepest desc. (CG)
   ISIF   =      2    stress and relaxation
   IWAVPR =     11    prediction:  0-non 1-charg 2-wave 3-comb
   ISYM   =      2    0-nonsym 1-usesym 2-fastsym
   LCORR  =      T    Harris-Foulkes like correction to forces

   POTIM  = 0.5000    time-step for ionic-motion
   TEIN   =    0.0    initial temperature
   TEBEG  =    0.0;   TEEND  =   0.0 temperature during run
   SMASS  =  -3.00    Nose mass-parameter (am)
   estimated Nose-frequenzy (Omega)   =  0.10E-29 period in steps =****** mass=  -0.815E-27a.u.
   SCALEE = 1.0000    scale energy and forces
   NPACO  =    256;   APACO  = 16.0  distance and # of slots for P.C.
   PSTRESS=    0.0 pullay stress

  Mass of Ions in am
   POMASS =  58.69 54.94114.82
  Ionic Valenz
   ZVAL   =  10.00  7.00  3.00
  Atomic Wigner-Seitz radii
   RWIGS  =  -1.00 -1.00 -1.00
  virtual crystal weights 
   VCA    =   1.00  1.00  1.00
   NELECT =     128.0000    total number of electrons
   NUPDOWN=      -1.0000    fix difference up-down

 DOS related values:
   EMIN   =  10.00;   EMAX   =-10.00  energy-range for DOS
   EFERMI =   0.00
   ISMEAR =     0;   SIGMA  =   0.02  broadening in eV -4-tet -1-fermi 0-gaus

 Electronic relaxation 2 (details)
   IALGO  =     68    algorithm
   LDIAG  =      T    sub-space diagonalisation (order eigenvalues)
   LSUBROT=      F    optimize rotation matrix (better conditioning)
   TURBO    =      0    0=normal 1=particle mesh
   IRESTART =      0    0=no restart 2=restart with 2 vectors
   NREBOOT  =      0    no. of reboots
   NMIN     =      0    reboot dimension
   EREF     =   0.00    reference energy to select bands
   IMIX   =      4    mixing-type and parameters
     AMIX     =   0.40;   BMIX     =  1.00
     AMIX_MAG =   1.60;   BMIX_MAG =  1.00
     AMIN     =   0.10
     WC   =   100.;   INIMIX=   1;  MIXPRE=   1;  MAXMIX= -45

 Intra band minimization:
   WEIMIN = 0.0010     energy-eigenvalue tresh-hold
   EBREAK =  0.30E-07  absolut break condition
   DEPER  =   0.30     relativ break condition  

   TIME   =   0.40     timestep for ELM

  volume/ion in A,a.u.               =      13.32        89.87
  Fermi-wavevector in a.u.,A,eV,Ry     =   1.381311  2.610300 25.960207  1.908021
  Thomas-Fermi vector in A             =   2.506108

 Write flags
   LWAVE        =      F    write WAVECAR
   LDOWNSAMPLE  =      F    k-point downsampling of WAVECAR
   LCHARG       =      T    write CHGCAR
   LVTOT        =      F    write LOCPOT, total local potential
   LVHAR        =      F    write LOCPOT, Hartree potential only
   LELF         =      F    write electronic localiz. function (ELF)
   LORBIT       =     11    0 simple, 1 ext, 2 COOP (PROOUT), +10 PAW based schemes


 Dipole corrections
   LMONO  =      F    monopole corrections only (constant potential shift)
   LDIPOL =      F    correct potential (dipole corrections)
   IDIPOL =      0    1-x, 2-y, 3-z, 4-all directions 
   EPSILON=  1.0000000 bulk dielectric constant

 Exchange correlation treatment:
   GGA     =    --    GGA type
   LEXCH   =     8    internal setting for exchange type
   VOSKOWN=      0    Vosko Wilk Nusair interpolation
   LHFCALC =     F    Hartree Fock is set to
   LHFONE  =     F    Hartree Fock one center treatment
   AEXX    =    0.0000 exact exchange contribution

 Linear response parameters
   LEPSILON=     F    determine dielectric tensor
   LRPA    =     F    only Hartree local field effects (RPA)
   LNABLA  =     F    use nabla operator in PAW spheres
   LVEL    =     F    velocity operator in full k-point grid
   LINTERFAST=   F  fast interpolation
   KINTER  =     0    interpolate to denser k-point grid
   CSHIFT  =0.1000    complex shift for real part using Kramers Kronig
   OMEGAMAX=  -1.0    maximum frequency
   DEG_THRESHOLD= 0.2000000E-02 threshold for treating states as degnerate
   RTIME   =   -0.100 relaxation time in fs
  (WPLASMAI=    0.000 imaginary part of plasma frequency in eV, 0.658/RTIME)
   DFIELD  = 0.0000000 0.0000000 0.0000000 field for delta impulse in time

 Orbital magnetization related:
   ORBITALMAG=     F  switch on orbital magnetization
   LCHIMAG   =     F  perturbation theory with respect to B field
   DQ        =  0.001000  dq finite difference perturbation B field
   LLRAUG    =     F  two centre corrections for induced B field



--------------------------------------------------------------------------------------------------------


 conjugate gradient relaxation of ions
 charge density and potential will be updated during run
 spin polarized calculation
 RMM-DIIS sequential band-by-band and
  variant of blocked Davidson during initial phase
 perform sub-space diagonalisation
    before iterative eigenvector-optimisation
 modified Broyden-mixing scheme, WC =      100.0
 initial mixing is a Kerker type mixing with AMIX =  0.4000 and BMIX =      1.0000
 Hartree-type preconditioning will be used
 using additional bands           20
 real space projection scheme for non local part
 use partial core corrections
 calculate Harris-corrections to forces   (improved forces if not selfconsistent)
 use gradient corrections 
 use of overlap-Matrix (Vanderbilt PP)
 Gauss-broadening in eV      SIGMA  =   0.02


--------------------------------------------------------------------------------------------------------


  energy-cutoff  :      550.00
  volume of cell :      213.09
      direct lattice vectors                 reciprocal lattice vectors
     5.972917778  0.000000000  0.000000000     0.167422362  0.000000000  0.000000000
     0.000000000  5.972917778  0.000000000     0.000000000  0.167422362  0.000000000
     0.000000000  0.000000000  5.972917778     0.000000000  0.000000000  0.167422362

  length of vectors
     5.972917778  5.972917778  5.972917778     0.167422362  0.167422362  0.167422362



 k-points in units of 2pi/SCALE and weight: k-points                                
   0.00000000  0.00000000  0.00000000       0.003
   0.13776469  0.00000000  0.00000000       0.006
   0.27552937  0.00000000  0.00000000       0.006
   0.41329406  0.00000000  0.00000000       0.006
   0.00000000  0.13776469  0.00000000       0.006
   0.13776469  0.13776469  0.00000000       0.012
   0.27552937  0.13776469  0.00000000       0.012
   0.41329406  0.13776469  0.00000000       0.012
   0.00000000  0.27552937  0.00000000       0.006
   0.13776469  0.27552937  0.00000000       0.012
   0.27552937  0.27552937  0.00000000       0.012
   0.41329406  0.27552937  0.00000000       0.012
   0.00000000  0.41329406  0.00000000       0.006
   0.13776469  0.41329406  0.00000000       0.012
   0.27552937  0.41329406  0.00000000       0.012
   0.41329406  0.41329406  0.00000000       0.012
   0.00000000  0.00000000  0.13776469       0.006
   0.13776469  0.00000000  0.13776469       0.012
   0.27552937  0.00000000  0.13776469       0.012
   0.41329406  0.00000000  0.13776469       0.012
   0.00000000  0.13776469  0.13776469       0.012
   0.13776469  0.13776469  0.13776469       0.023
   0.27552937  0.13776469  0.13776469       0.023
   0.41329406  0.13776469  0.13776469       0.023
   0.00000000  0.27552937  0.13776469       0.012
   0.13776469  0.27552937  0.13776469       0.023
   0.27552937  0.27552937  0.13776469       0.023
   0.41329406  0.27552937  0.13776469       0.023
   0.00000000  0.41329406  0.13776469       0.012
   0.13776469  0.41329406  0.13776469       0.023
   0.27552937  0.41329406  0.13776469       0.023
   0.41329406  0.41329406  0.13776469       0.023
   0.00000000  0.00000000  0.27552937       0.006
   0.13776469  0.00000000  0.27552937       0.012
   0.27552937  0.00000000  0.27552937       0.012
   0.41329406  0.00000000  0.27552937       0.012
   0.00000000  0.13776469  0.27552937       0.012
   0.13776469  0.13776469  0.27552937       0.023
   0.27552937  0.13776469  0.27552937       0.023
   0.41329406  0.13776469  0.27552937       0.023
   0.00000000  0.27552937  0.27552937       0.012
   0.13776469  0.27552937  0.27552937       0.023
   0.27552937  0.27552937  0.27552937       0.023
   0.41329406  0.27552937  0.27552937       0.023
   0.00000000  0.41329406  0.27552937       0.012
   0.13776469  0.41329406  0.27552937       0.023
   0.27552937  0.41329406  0.27552937       0.023
   0.41329406  0.41329406  0.27552937       0.023
   0.00000000  0.00000000  0.41329406       0.006
   0.13776469  0.00000000  0.41329406       0.012
   0.27552937  0.00000000  0.41329406       0.012
   0.41329406  0.00000000  0.41329406       0.012
   0.00000000  0.13776469  0.41329406       0.012
   0.13776469  0.13776469  0.41329406       0.023
   0.27552937  0.13776469  0.41329406       0.023
   0.41329406  0.13776469  0.41329406       0.023
   0.00000000  0.27552937  0.41329406       0.012
   0.13776469  0.27552937  0.41329406       0.023
   0.27552937  0.27552937  0.41329406       0.023
   0.41329406  0.27552937  0.41329406       0.023
   0.00000000  0.41329406  0.41329406       0.012
   0.13776469  0.41329406  0.41329406       0.023
   0.27552937  0.41329406  0.41329406       0.023
   0.41329406  0.41329406  0.41329406       0.023

 k-points in reciprocal lattice and weights: k-points                                
   0.00000000  0.00000000  0.00000000       0.003
   0.14285714  0.00000000  0.00000000       0.006
   0.28571429  0.00000000  0.00000000       0.006
   0.42857143  0.00000000  0.00000000       0.006
   0.00000000  0.14285714  0.00000000       0.006
   0.14285714  0.14285714  0.00000000       0.012
   0.28571429  0.14285714  0.00000000       0.012
   0.42857143  0.14285714  0.00000000       0.012
   0.00000000  0.28571429  0.00000000       0.006
   0.14285714  0.28571429  0.00000000       0.012
   0.28571429  0.28571429  0.00000000       0.012
   0.42857143  0.28571429  0.00000000       0.012
   0.00000000  0.42857143  0.00000000       0.006
   0.14285714  0.42857143  0.00000000       0.012
   0.28571429  0.42857143  0.00000000       0.012
   0.42857143  0.42857143  0.00000000       0.012
   0.00000000  0.00000000  0.14285714       0.006
   0.14285714  0.00000000  0.14285714       0.012
   0.28571429  0.00000000  0.14285714       0.012
   0.42857143  0.00000000  0.14285714       0.012
   0.00000000  0.14285714  0.14285714       0.012
   0.14285714  0.14285714  0.14285714       0.023
   0.28571429  0.14285714  0.14285714       0.023
   0.42857143  0.14285714  0.14285714       0.023
   0.00000000  0.28571429  0.14285714       0.012
   0.14285714  0.28571429  0.14285714       0.023
   0.28571429  0.28571429  0.14285714       0.023
   0.42857143  0.28571429  0.14285714       0.023
   0.00000000  0.42857143  0.14285714       0.012
   0.14285714  0.42857143  0.14285714       0.023
   0.28571429  0.42857143  0.14285714       0.023
   0.42857143  0.42857143  0.14285714       0.023
   0.00000000  0.00000000  0.28571429       0.006
   0.14285714  0.00000000  0.28571429       0.012
   0.28571429  0.00000000  0.28571429       0.012
   0.42857143  0.00000000  0.28571429       0.012
   0.00000000  0.14285714  0.28571429       0.012
   0.14285714  0.14285714  0.28571429       0.023
   0.28571429  0.14285714  0.28571429       0.023
   0.42857143  0.14285714  0.28571429       0.023
   0.00000000  0.28571429  0.28571429       0.012
   0.14285714  0.28571429  0.28571429       0.023
   0.28571429  0.28571429  0.28571429       0.023
   0.42857143  0.28571429  0.28571429       0.023
   0.00000000  0.42857143  0.28571429       0.012
   0.14285714  0.42857143  0.28571429       0.023
   0.28571429  0.42857143  0.28571429       0.023
   0.42857143  0.42857143  0.28571429       0.023
   0.00000000  0.00000000  0.42857143       0.006
   0.14285714  0.00000000  0.42857143       0.012
   0.28571429  0.00000000  0.42857143       0.012
   0.42857143  0.00000000  0.42857143       0.012
   0.00000000  0.14285714  0.42857143       0.012
   0.14285714  0.14285714  0.42857143       0.023
   0.28571429  0.14285714  0.42857143       0.023
   0.42857143  0.14285714  0.42857143       0.023
   0.00000000  0.28571429  0.42857143       0.012
   0.14285714  0.28571429  0.42857143       0.023
   0.28571429  0.28571429  0.42857143       0.023
   0.42857143  0.28571429  0.42857143       0.023
   0.00000000  0.42857143  0.42857143       0.012
   0.14285714  0.42857143  0.42857143       0.023
   0.28571429  0.42857143  0.42857143       0.023
   0.42857143  0.42857143  0.42857143       0.023

 position of ions in fractional coordinates (direct lattice) 
   0.25010526  0.26702463  0.26418817
   0.74989474  0.26702463  0.26418817
   0.25010526  0.73297537  0.26418817
   0.74989474  0.73297537  0.26418817
   0.25010526  0.26702463  0.73581183
   0.74989474  0.26702463  0.73581183
   0.25010526  0.73297537  0.73581183
   0.74989474  0.73297537  0.73581183
   0.50000000  0.50000000  0.00000000
   0.00000000  0.50000000  0.00000000
   0.00000000  0.00000000  0.50000000
   0.50000000  0.00000000  0.50000000
   0.50000000  0.50000000  0.50000000
   0.00000000  0.50000000  0.50000000
   0.00000000  0.00000000  0.00000000
   0.50000000  0.00000000  0.00000000

 position of ions in cartesian coordinates  (Angst):
   1.49385816  1.59491615  1.57797420
   4.47905962  1.59491615  1.57797420
   1.49385816  4.37800162  1.57797420
   4.47905962  4.37800162  1.57797420
   1.49385816  1.59491615  4.39494358
   4.47905962  1.59491615  4.39494358
   1.49385816  4.37800162  4.39494358
   4.47905962  4.37800162  4.39494358
   2.98645889  2.98645889  0.00000000
   0.00000000  2.98645889  0.00000000
   0.00000000  0.00000000  2.98645889
   2.98645889  0.00000000  2.98645889
   2.98645889  2.98645889  2.98645889
   0.00000000  2.98645889  2.98645889
   0.00000000  0.00000000  0.00000000
   2.98645889  0.00000000  0.00000000



--------------------------------------------------------------------------------------------------------


 k-point  1 :   0.0000 0.0000 0.0000  plane waves:    6235
 k-point  2 :   0.1429 0.0000 0.0000  plane waves:    6247
 k-point  3 :   0.2857 0.0000 0.0000  plane waves:    6247
 k-point  4 :   0.4286 0.0000 0.0000  plane waves:    6270
 k-point  5 :   0.0000 0.1429 0.0000  plane waves:    6247
 k-point  6 :   0.1429 0.1429 0.0000  plane waves:    6268
 k-point  7 :   0.2857 0.1429 0.0000  plane waves:    6253
 k-point  8 :   0.4286 0.1429 0.0000  plane waves:    6240
 k-point  9 :   0.0000 0.2857 0.0000  plane waves:    6247
 k-point 10 :   0.1429 0.2857 0.0000  plane waves:    6253
 k-point 11 :   0.2857 0.2857 0.0000  plane waves:    6244
 k-point 12 :   0.4286 0.2857 0.0000  plane waves:    6239
 k-point 13 :   0.0000 0.4286 0.0000  plane waves:    6270
 k-point 14 :   0.1429 0.4286 0.0000  plane waves:    6240
 k-point 15 :   0.2857 0.4286 0.0000  plane waves:    6239
 k-point 16 :   0.4286 0.4286 0.0000  plane waves:    6238
 k-point 17 :   0.0000 0.0000 0.1429  plane waves:    6247
 k-point 18 :   0.1429 0.0000 0.1429  plane waves:    6268
 k-point 19 :   0.2857 0.0000 0.1429  plane waves:    6253
 k-point 20 :   0.4286 0.0000 0.1429  plane waves:    6240
 k-point 21 :   0.0000 0.1429 0.1429  plane waves:    6268
 k-point 22 :   0.1429 0.1429 0.1429  plane waves:    6244
 k-point 23 :   0.2857 0.1429 0.1429  plane waves:    6246
 k-point 24 :   0.4286 0.1429 0.1429  plane waves:    6249
 k-point 25 :   0.0000 0.2857 0.1429  plane waves:    6253
 k-point 26 :   0.1429 0.2857 0.1429  plane waves:    6246
 k-point 27 :   0.2857 0.2857 0.1429  plane waves:    6254
 k-point 28 :   0.4286 0.2857 0.1429  plane waves:    6227
 k-point 29 :   0.0000 0.4286 0.1429  plane waves:    6240
 k-point 30 :   0.1429 0.4286 0.1429  plane waves:    6249
 k-point 31 :   0.2857 0.4286 0.1429  plane waves:    6227
 k-point 32 :   0.4286 0.4286 0.1429  plane waves:    6243
 k-point 33 :   0.0000 0.0000 0.2857  plane waves:    6247
 k-point 34 :   0.1429 0.0000 0.2857  plane waves:    6253
 k-point 35 :   0.2857 0.0000 0.2857  plane waves:    6244
 k-point 36 :   0.4286 0.0000 0.2857  plane waves:    6239
 k-point 37 :   0.0000 0.1429 0.2857  plane waves:    6253
 k-point 38 :   0.1429 0.1429 0.2857  plane waves:    6246
 k-point 39 :   0.2857 0.1429 0.2857  plane waves:    6254
 k-point 40 :   0.4286 0.1429 0.2857  plane waves:    6227
 k-point 41 :   0.0000 0.2857 0.2857  plane waves:    6244
 k-point 42 :   0.1429 0.2857 0.2857  plane waves:    6254
 k-point 43 :   0.2857 0.2857 0.2857  plane waves:    6247
 k-point 44 :   0.4286 0.2857 0.2857  plane waves:    6233
 k-point 45 :   0.0000 0.4286 0.2857  plane waves:    6239
 k-point 46 :   0.1429 0.4286 0.2857  plane waves:    6227
 k-point 47 :   0.2857 0.4286 0.2857  plane waves:    6233
 k-point 48 :   0.4286 0.4286 0.2857  plane waves:    6230
 k-point 49 :   0.0000 0.0000 0.4286  plane waves:    6270
 k-point 50 :   0.1429 0.0000 0.4286  plane waves:    6240
 k-point 51 :   0.2857 0.0000 0.4286  plane waves:    6239
 k-point 52 :   0.4286 0.0000 0.4286  plane waves:    6238
 k-point 53 :   0.0000 0.1429 0.4286  plane waves:    6240
 k-point 54 :   0.1429 0.1429 0.4286  plane waves:    6249
 k-point 55 :   0.2857 0.1429 0.4286  plane waves:    6227
 k-point 56 :   0.4286 0.1429 0.4286  plane waves:    6243
 k-point 57 :   0.0000 0.2857 0.4286  plane waves:    6239
 k-point 58 :   0.1429 0.2857 0.4286  plane waves:    6227
 k-point 59 :   0.2857 0.2857 0.4286  plane waves:    6233
 k-point 60 :   0.4286 0.2857 0.4286  plane waves:    6230
 k-point 61 :   0.0000 0.4286 0.4286  plane waves:    6238
 k-point 62 :   0.1429 0.4286 0.4286  plane waves:    6243
 k-point 63 :   0.2857 0.4286 0.4286  plane waves:    6230
 k-point 64 :   0.4286 0.4286 0.4286  plane waves:    6203

 maximum and minimum number of plane-waves per node :      6270     6203

 maximum number of plane-waves:      6270
 maximum index in each direction: 
   IXMAX=   11   IYMAX=   11   IZMAX=   11
   IXMIN=  -11   IYMIN=  -11   IZMIN=  -11


 serial   3D FFT for wavefunctions
 parallel 3D FFT for charge:
    minimum data exchange during FFTs selected (reduces bandwidth)


 total amount of memory used by VASP MPI-rank0   139243. kBytes
=======================================================================

   base      :      30000. kBytes
   nonlr-proj:       6803. kBytes
   fftplans  :       1269. kBytes
   grid      :       6573. kBytes
   one-center:        497. kBytes
   wavefun   :      94101. kBytes

     INWAV:  cpu time    0.0000: real time    0.0000
 Broyden mixing: mesh for mixing (old mesh)
   NGX = 23   NGY = 23   NGZ = 23
  (NGX  = 72   NGY  = 72   NGZ  = 72)
  gives a total of  12167 points

 initial charge density was supplied:
 charge density of overlapping atoms calculated
 number of electron     128.0000000 magnetization      16.8000000
 keeping initial charge density in first step


--------------------------------------------------------------------------------------------------------


 Maximum index for non-local projection operator         3887
 Maximum index for augmentation-charges         2103 (set IRDMAX)


--------------------------------------------------------------------------------------------------------


 First call to EWALD:  gamma=   0.297
 Maximum number of real-space cells 3x 3x 3
 Maximum number of reciprocal cells 3x 3x 3

    FEWALD:  cpu time    0.0020: real time    0.0020


--------------------------------------- Iteration      1(   1)  ---------------------------------------


    POTLOK:  cpu time    0.0984: real time    0.1028
    SETDIJ:  cpu time    0.0360: real time    0.0360
     EDDAV:  cpu time   38.2729: real time   38.3182
       DOS:  cpu time    0.0057: real time    0.0057
    --------------------------------------------
      LOOP:  cpu time   38.4130: real time   38.4627

 eigenvalue-minimisations  : 21504
 total energy-change (2. order) : 0.1065342E+04  (-0.5439624E+04)
 number of electron     128.0000000 magnetization      16.8000000
 augmentation part      128.0000000 magnetization      16.8000000

 Free energy of the ion-electron system (eV)
  ---------------------------------------------------
  alpha Z        PSCENC =       528.06544294
  Ewald energy   TEWEN  =     -9184.68007216
  -Hartree energ DENC   =     -3231.06746396
  -exchange      EXHF   =         0.00000000
  -V(xc)+E(xc)   XCENC  =        78.30900563
  PAW double counting   =     10320.96726947   -10647.99417394
  entropy T*S    EENTRO =        -0.00175935
  eigenvalues    EBANDS =      1972.28185129
  atomic energy  EATOM  =     11229.46195210
  Solvation  Ediel_sol  =         0.00000000
  ---------------------------------------------------
  free energy    TOTEN  =      1065.34205201 eV

  energy without entropy =     1065.34381136  energy(sigma->0) =     1065.34293169


--------------------------------------------------------------------------------------------------------




--------------------------------------- Iteration      1(   2)  ---------------------------------------


     EDDAV:  cpu time   37.3842: real time   37.4721
       DOS:  cpu time    0.0057: real time    0.0057
    --------------------------------------------
      LOOP:  cpu time   37.3899: real time   37.4778

 eigenvalue-minimisations  : 21504
 total energy-change (2. order) :-0.1063922E+04  (-0.1030029E+04)
 number of electron     128.0000000 magnetization      16.8000000
 augmentation part      128.0000000 magnetization      16.8000000

 Free energy of the ion-electron system (eV)
  ---------------------------------------------------
  alpha Z        PSCENC =       528.06544294
  Ewald energy   TEWEN  =     -9184.68007216
  -Hartree energ DENC   =     -3231.06746396
  -exchange      EXHF   =         0.00000000
  -V(xc)+E(xc)   XCENC  =        78.30900563
  PAW double counting   =     10320.96726947   -10647.99417394
  entropy T*S    EENTRO =        -0.00256513
  eigenvalues    EBANDS =       908.36036868
  atomic energy  EATOM  =     11229.46195210
  Solvation  Ediel_sol  =         0.00000000
  ---------------------------------------------------
  free energy    TOTEN  =         1.41976362 eV

  energy without entropy =        1.42232875  energy(sigma->0) =        1.42104618


--------------------------------------------------------------------------------------------------------




--------------------------------------- Iteration      1(   3)  ---------------------------------------


     EDDAV:  cpu time   40.8553: real time   40.9499
       DOS:  cpu time    0.0056: real time    0.0057
    --------------------------------------------
      LOOP:  cpu time   40.8609: real time   40.9555

 eigenvalue-minimisations  : 24048
 total energy-change (2. order) :-0.1103900E+03  (-0.9825983E+02)
 number of electron     128.0000000 magnetization      16.8000000
 augmentation part      128.0000000 magnetization      16.8000000

 Free energy of the ion-electron system (eV)
  ---------------------------------------------------
  alpha Z        PSCENC =       528.06544294
  Ewald energy   TEWEN  =     -9184.68007216
  -Hartree energ DENC   =     -3231.06746396
  -exchange      EXHF   =         0.00000000
  -V(xc)+E(xc)   XCENC  =        78.30900563
  PAW double counting   =     10320.96726947   -10647.99417394
  entropy T*S    EENTRO =        -0.00367815
  eigenvalues    EBANDS =       797.97148742
  atomic energy  EATOM  =     11229.46195210
  Solvation  Ediel_sol  =         0.00000000
  ---------------------------------------------------
  free energy    TOTEN  =      -108.97023067 eV

  energy without entropy =     -108.96655251  energy(sigma->0) =     -108.96839159


--------------------------------------------------------------------------------------------------------




--------------------------------------- Iteration      1(   4)  ---------------------------------------


     EDDAV:  cpu time   52.0931: real time   52.1794
       DOS:  cpu time    0.0059: real time    0.0059
    --------------------------------------------
      LOOP:  cpu time   52.0990: real time   52.1852

 eigenvalue-minimisations  : 32352
 total energy-change (2. order) :-0.7206933E+01  (-0.6652474E+01)
 number of electron     128.0000000 magnetization      16.8000000
 augmentation part      128.0000000 magnetization      16.8000000

 Free energy of the ion-electron system (eV)
  ---------------------------------------------------
  alpha Z        PSCENC =       528.06544294
  Ewald energy   TEWEN  =     -9184.68007216
  -Hartree energ DENC   =     -3231.06746396
  -exchange      EXHF   =         0.00000000
  -V(xc)+E(xc)   XCENC  =        78.30900563
  PAW double counting   =     10320.96726947   -10647.99417394
  entropy T*S    EENTRO =        -0.00409399
  eigenvalues    EBANDS =       790.76496978
  atomic energy  EATOM  =     11229.46195210
  Solvation  Ediel_sol  =         0.00000000
  ---------------------------------------------------
  free energy    TOTEN  =      -116.17716414 eV

  energy without entropy =     -116.17307015  energy(sigma->0) =     -116.17511714


--------------------------------------------------------------------------------------------------------




--------------------------------------- Iteration      1(   5)  ---------------------------------------


     EDDAV:  cpu time   50.4767: real time   50.5557
       DOS:  cpu time    0.0059: real time    0.0060
    CHARGE:  cpu time    1.0282: real time    1.0290
    MIXING:  cpu time    0.0016: real time    0.0016
    --------------------------------------------
      LOOP:  cpu time   51.5125: real time   51.5923

 eigenvalue-minimisations  : 31164
 total energy-change (2. order) :-0.2569906E+00  (-0.2552064E+00)
 number of electron     127.9999740 magnetization      14.2099942
 augmentation part       60.5559466 magnetization       9.1470990

 Broyden mixing:
  rms(total) = 0.34705E+01    rms(broyden)= 0.34705E+01
  rms(prec ) = 0.53364E+01
  weight for this iteration     100.00

 Free energy of the ion-electron system (eV)
  ---------------------------------------------------
  alpha Z        PSCENC =       528.06544294
  Ewald energy   TEWEN  =     -9184.68007216
  -Hartree energ DENC   =     -3231.06746396
  -exchange      EXHF   =         0.00000000
  -V(xc)+E(xc)   XCENC  =        78.30900563
  PAW double counting   =     10320.96726947   -10647.99417394
  entropy T*S    EENTRO =        -0.00399900
  eigenvalues    EBANDS =       790.50788420
  atomic energy  EATOM  =     11229.46195210
  Solvation  Ediel_sol  =         0.00000000
  ---------------------------------------------------
  free energy    TOTEN  =      -116.43415473 eV

  energy without entropy =     -116.43015573  energy(sigma->0) =     -116.43215523


--------------------------------------------------------------------------------------------------------




--------------------------------------- Iteration      1(   6)  ---------------------------------------


    POTLOK:  cpu time    0.0974: real time    0.0984
    SETDIJ:  cpu time    0.0363: real time    0.0363
    EDDIAG:  cpu time    5.2705: real time    5.2789
  RMM-DIIS:  cpu time   16.8671: real time   16.8973
    ORTHCH:  cpu time    1.0186: real time    1.0198
       DOS:  cpu time    0.0056: real time    0.0056
    CHARGE:  cpu time    1.0433: real time    1.0452
    MIXING:  cpu time    0.0016: real time    0.0016
    --------------------------------------------
      LOOP:  cpu time   24.3405: real time   24.3832

 eigenvalue-minimisations  : 21504
 total energy-change (2. order) : 0.6314652E+01  (-0.1665262E+02)
 number of electron     127.9999848 magnetization      14.5617591
 augmentation part       69.7456293 magnetization      10.9841172

 Broyden mixing:
  rms(total) = 0.46593E+01    rms(broyden)= 0.46592E+01
  rms(prec ) = 0.63215E+01
  weight for this iteration     100.00

 eigenvalues of (default mixing * dielectric matrix)
  average eigenvalue GAMMA=   0.2168
  0.2168

 Free energy of the ion-electron system (eV)
  ---------------------------------------------------
  alpha Z        PSCENC =       528.06544294
  Ewald energy   TEWEN  =     -9184.68007216
  -Hartree energ DENC   =     -2993.73592251
  -exchange      EXHF   =         0.00000000
  -V(xc)+E(xc)   XCENC  =        65.89382172
  PAW double counting   =     11098.33338049   -11390.99416891
  entropy T*S    EENTRO =        -0.00618629
  eigenvalues    EBANDS =       537.54225010
  atomic energy  EATOM  =     11229.46195210
  Solvation  Ediel_sol  =         0.00000000
  ---------------------------------------------------
  free energy    TOTEN  =      -110.11950253 eV

  energy without entropy =     -110.11331624  energy(sigma->0) =     -110.11640938


--------------------------------------------------------------------------------------------------------




--------------------------------------- Iteration      1(   7)  ---------------------------------------


    POTLOK:  cpu time    0.0977: real time    0.0978
    SETDIJ:  cpu time    0.0362: real time    0.0362
    EDDIAG:  cpu time    5.3233: real time    5.3304
  RMM-DIIS:  cpu time   16.6485: real time   16.6730
    ORTHCH:  cpu time    1.0209: real time    1.0220
       DOS:  cpu time    0.0055: real time    0.0055
    CHARGE:  cpu time    1.0294: real time    1.0306
    MIXING:  cpu time    0.0016: real time    0.0017
    --------------------------------------------
      LOOP:  cpu time   24.1632: real time   24.1971

 eigenvalue-minimisations  : 21554
 total energy-change (2. order) :-0.1201183E+01  (-0.2707659E+01)
 number of electron     127.9999685 magnetization      14.0402987
 augmentation part       70.1458094 magnetization      10.4703699

 Broyden mixing:
  rms(total) = 0.38868E+01    rms(broyden)= 0.38866E+01
  rms(prec ) = 0.69573E+01
  weight for this iteration     100.00

 eigenvalues of (default mixing * dielectric matrix)
  average eigenvalue GAMMA=   0.3941
  0.3941  0.3941

 Free energy of the ion-electron system (eV)
  ---------------------------------------------------
  alpha Z        PSCENC =       528.06544294
  Ewald energy   TEWEN  =     -9184.68007216
  -Hartree energ DENC   =     -2985.46433127
  -exchange      EXHF   =         0.00000000
  -V(xc)+E(xc)   XCENC  =        66.80148459
  PAW double counting   =     11374.54253044   -11673.33098518
  entropy T*S    EENTRO =        -0.00232700
  eigenvalues    EBANDS =       533.28561960
  atomic energy  EATOM  =     11229.46195210
  Solvation  Ediel_sol  =         0.00000000
  ---------------------------------------------------
  free energy    TOTEN  =      -111.32068595 eV

  energy without entropy =     -111.31835894  energy(sigma->0) =     -111.31952244


--------------------------------------------------------------------------------------------------------




--------------------------------------- Iteration      1(   8)  ---------------------------------------


    POTLOK:  cpu time    0.0979: real time    0.0983
    SETDIJ:  cpu time    0.0363: real time    0.0364
    EDDIAG:  cpu time    5.3350: real time    5.3424
  RMM-DIIS:  cpu time   16.6298: real time   16.6565
    ORTHCH:  cpu time    1.0193: real time    1.0205
       DOS:  cpu time    0.0060: real time    0.0060
    CHARGE:  cpu time    1.0262: real time    1.0278
    MIXING:  cpu time    0.0017: real time    0.0017
    --------------------------------------------
      LOOP:  cpu time   24.1522: real time   24.1895

 eigenvalue-minimisations  : 21504
 total energy-change (2. order) : 0.3264635E+01  (-0.2730983E+01)
 number of electron     127.9999798 magnetization      13.5107661
 augmentation part       68.6368955 magnetization      10.3082668

 Broyden mixing:
  rms(total) = 0.31758E+01    rms(broyden)= 0.31757E+01
  rms(prec ) = 0.60888E+01
  weight for this iteration     100.00

 eigenvalues of (default mixing * dielectric matrix)
  average eigenvalue GAMMA=   0.3892
  0.5064  0.5064  0.1546

 Free energy of the ion-electron system (eV)
  ---------------------------------------------------
  alpha Z        PSCENC =       528.06544294
  Ewald energy   TEWEN  =     -9184.68007216
  -Hartree energ DENC   =     -3035.19096381
  -exchange      EXHF   =         0.00000000
  -V(xc)+E(xc)   XCENC  =        70.08994813
  PAW double counting   =     11699.15859279   -12019.73523889
  entropy T*S    EENTRO =        -0.00350753
  eigenvalues    EBANDS =       604.77779551
  atomic energy  EATOM  =     11229.46195210
  Solvation  Ediel_sol  =         0.00000000
  ---------------------------------------------------
  free energy    TOTEN  =      -108.05605092 eV

  energy without entropy =     -108.05254339  energy(sigma->0) =     -108.05429716


--------------------------------------------------------------------------------------------------------




--------------------------------------- Iteration      1(   9)  ---------------------------------------


    POTLOK:  cpu time    0.0982: real time    0.0989
    SETDIJ:  cpu time    0.0364: real time    0.0364
    EDDIAG:  cpu time    5.3534: real time    5.3619
  RMM-DIIS:  cpu time   16.8167: real time   16.8401
    ORTHCH:  cpu time    1.0152: real time    1.0176
       DOS:  cpu time    0.0057: real time    0.0059
    CHARGE:  cpu time    1.0671: real time    1.0679
    MIXING:  cpu time    0.0018: real time    0.0018
    --------------------------------------------
      LOOP:  cpu time   24.3946: real time   24.4306

 eigenvalue-minimisations  : 21543
 total energy-change (2. order) : 0.4538378E+01  (-0.7365530E+00)
 number of electron     127.9999801 magnetization      14.2651271
 augmentation part       66.8299903 magnetization      10.2725715

 Broyden mixing:
  rms(total) = 0.18376E+01    rms(broyden)= 0.18375E+01
  rms(prec ) = 0.27503E+01
  weight for this iteration     100.00

 eigenvalues of (default mixing * dielectric matrix)
  average eigenvalue GAMMA=   0.4598
  0.9352  0.5252  0.2461  0.1327

 Free energy of the ion-electron system (eV)
  ---------------------------------------------------
  alpha Z        PSCENC =       528.06544294
  Ewald energy   TEWEN  =     -9184.68007216
  -Hartree energ DENC   =     -3053.09989905
  -exchange      EXHF   =         0.00000000
  -V(xc)+E(xc)   XCENC  =        71.21381595
  PAW double counting   =     11889.81725544   -12219.68464760
  entropy T*S    EENTRO =        -0.00368798
  eigenvalues    EBANDS =       635.39216764
  atomic energy  EATOM  =     11229.46195210
  Solvation  Ediel_sol  =         0.00000000
  ---------------------------------------------------
  free energy    TOTEN  =      -103.51767272 eV

  energy without entropy =     -103.51398474  energy(sigma->0) =     -103.51582873


--------------------------------------------------------------------------------------------------------




--------------------------------------- Iteration      1(  10)  ---------------------------------------


    POTLOK:  cpu time    0.0978: real time    0.0979
    SETDIJ:  cpu time    0.0364: real time    0.0366
    EDDIAG:  cpu time    5.3810: real time    5.3884
  RMM-DIIS:  cpu time   16.9497: real time   16.9736
    ORTHCH:  cpu time    1.0202: real time    1.0216
       DOS:  cpu time    0.0058: real time    0.0059
    CHARGE:  cpu time    1.0603: real time    1.0611
    MIXING:  cpu time    0.0019: real time    0.0019
    --------------------------------------------
      LOOP:  cpu time   24.5531: real time   24.5870

 eigenvalue-minimisations  : 21509
 total energy-change (2. order) : 0.8635134E+00  (-0.1881525E+00)
 number of electron     127.9999765 magnetization      14.9682249
 augmentation part       67.6672115 magnetization      10.8178717

 Broyden mixing:
  rms(total) = 0.96871E+00    rms(broyden)= 0.96867E+00
  rms(prec ) = 0.10858E+01
  weight for this iteration     100.00

 eigenvalues of (default mixing * dielectric matrix)
  average eigenvalue GAMMA=   0.4610
  0.9373  0.5039  0.5039  0.2223  0.1374

 Free energy of the ion-electron system (eV)
  ---------------------------------------------------
  alpha Z        PSCENC =       528.06544294
  Ewald energy   TEWEN  =     -9184.68007216
  -Hartree energ DENC   =     -3037.06278749
  -exchange      EXHF   =         0.00000000
  -V(xc)+E(xc)   XCENC  =        71.55100159
  PAW double counting   =     12186.39359923   -12519.80812224
  entropy T*S    EENTRO =        -0.00239947
  eigenvalues    EBANDS =       623.42722621
  atomic energy  EATOM  =     11229.46195210
  Solvation  Ediel_sol  =         0.00000000
  ---------------------------------------------------
  free energy    TOTEN  =      -102.65415929 eV

  energy without entropy =     -102.65175982  energy(sigma->0) =     -102.65295956


--------------------------------------------------------------------------------------------------------




--------------------------------------- Iteration      1(  11)  ---------------------------------------


    POTLOK:  cpu time    0.0980: real time    0.0981
    SETDIJ:  cpu time    0.0364: real time    0.0364
    EDDIAG:  cpu time    5.4057: real time    5.4157
  RMM-DIIS:  cpu time   17.4442: real time   17.4691
    ORTHCH:  cpu time    1.0226: real time    1.0238
       DOS:  cpu time    0.0059: real time    0.0059
    CHARGE:  cpu time    1.0851: real time    1.0863
    MIXING:  cpu time    0.0020: real time    0.0020
    --------------------------------------------
      LOOP:  cpu time   25.0999: real time   25.1373

 eigenvalue-minimisations  : 21738
 total energy-change (2. order) :-0.2701943E+00  (-0.3806574E-01)
 number of electron     127.9999781 magnetization      16.3578451
 augmentation part       67.4226905 magnetization      12.0835207

 Broyden mixing:
  rms(total) = 0.71423E+00    rms(broyden)= 0.71422E+00
  rms(prec ) = 0.79211E+00
  weight for this iteration     100.00

 eigenvalues of (default mixing * dielectric matrix)
  average eigenvalue GAMMA=   0.6199
  1.2289  0.7803  0.7803  0.5889  0.2059  0.1353

 Free energy of the ion-electron system (eV)
  ---------------------------------------------------
  alpha Z        PSCENC =       528.06544294
  Ewald energy   TEWEN  =     -9184.68007216
  -Hartree energ DENC   =     -3038.54308103
  -exchange      EXHF   =         0.00000000
  -V(xc)+E(xc)   XCENC  =        72.92501808
  PAW double counting   =     12323.15523152   -12660.28681997
  entropy T*S    EENTRO =        -0.00340266
  eigenvalues    EBANDS =       626.98137755
  atomic energy  EATOM  =     11229.46195210
  Solvation  Ediel_sol  =         0.00000000
  ---------------------------------------------------
  free energy    TOTEN  =      -102.92435364 eV

  energy without entropy =     -102.92095097  energy(sigma->0) =     -102.92265231


--------------------------------------------------------------------------------------------------------




--------------------------------------- Iteration      1(  12)  ---------------------------------------


    POTLOK:  cpu time    0.0981: real time    0.0990
    SETDIJ:  cpu time    0.0362: real time    0.0362
    EDDIAG:  cpu time    5.4276: real time    5.4348
  RMM-DIIS:  cpu time   17.0813: real time   17.1087
    ORTHCH:  cpu time    1.0233: real time    1.0251
       DOS:  cpu time    0.0056: real time    0.0056
    CHARGE:  cpu time    1.0698: real time    1.0712
    MIXING:  cpu time    0.0021: real time    0.0021
    --------------------------------------------
      LOOP:  cpu time   24.7441: real time   24.7826

 eigenvalue-minimisations  : 21767
 total energy-change (2. order) :-0.3885418E+00  (-0.4960158E-01)
 number of electron     127.9999776 magnetization      17.2802163
 augmentation part       67.6484616 magnetization      13.0852515

 Broyden mixing:
  rms(total) = 0.61265E+00    rms(broyden)= 0.61265E+00
  rms(prec ) = 0.90164E+00
  weight for this iteration     100.00

 eigenvalues of (default mixing * dielectric matrix)
  average eigenvalue GAMMA=   0.6470
  1.7634  0.7902  0.7902  0.5741  0.1353  0.2076  0.2684

 Free energy of the ion-electron system (eV)
  ---------------------------------------------------
  alpha Z        PSCENC =       528.06544294
  Ewald energy   TEWEN  =     -9184.68007216
  -Hartree energ DENC   =     -3032.01269112
  -exchange      EXHF   =         0.00000000
  -V(xc)+E(xc)   XCENC  =        74.34213233
  PAW double counting   =     12545.67411731   -12886.26078291
  entropy T*S    EENTRO =        -0.00282908
  eigenvalues    EBANDS =       622.09983513
  atomic energy  EATOM  =     11229.46195210
  Solvation  Ediel_sol  =         0.00000000
  ---------------------------------------------------
  free energy    TOTEN  =      -103.31289546 eV

  energy without entropy =     -103.31006638  energy(sigma->0) =     -103.31148092


--------------------------------------------------------------------------------------------------------




--------------------------------------- Iteration      1(  13)  ---------------------------------------


    POTLOK:  cpu time    0.0981: real time    0.0983
    SETDIJ:  cpu time    0.0364: real time    0.0364
    EDDIAG:  cpu time    5.4569: real time    5.4643
  RMM-DIIS:  cpu time   17.3384: real time   17.3681
    ORTHCH:  cpu time    1.0268: real time    1.0281
       DOS:  cpu time    0.0059: real time    0.0059
    CHARGE:  cpu time    1.0802: real time    1.0816
    MIXING:  cpu time    0.0023: real time    0.0023
    --------------------------------------------
      LOOP:  cpu time   25.0450: real time   25.0851

 eigenvalue-minimisations  : 21880
 total energy-change (2. order) : 0.4659684E-01  (-0.2350180E-01)
 number of electron     127.9999780 magnetization      17.5050826
 augmentation part       67.6645649 magnetization      13.0532105

 Broyden mixing:
  rms(total) = 0.21121E+00    rms(broyden)= 0.21119E+00
  rms(prec ) = 0.27254E+00
  weight for this iteration     100.00

 eigenvalues of (default mixing * dielectric matrix)
  average eigenvalue GAMMA=   0.6903
  2.0372  0.8832  0.8832  0.5513  0.5513  0.1353  0.2060  0.2751

 Free energy of the ion-electron system (eV)
  ---------------------------------------------------
  alpha Z        PSCENC =       528.06544294
  Ewald energy   TEWEN  =     -9184.68007216
  -Hartree energ DENC   =     -3029.25853042
  -exchange      EXHF   =         0.00000000
  -V(xc)+E(xc)   XCENC  =        75.40691412
  PAW double counting   =     12724.74389425   -13068.53682189
  entropy T*S    EENTRO =        -0.00248382
  eigenvalues    EBANDS =       621.53340627
  atomic energy  EATOM  =     11229.46195210
  Solvation  Ediel_sol  =         0.00000000
  ---------------------------------------------------
  free energy    TOTEN  =      -103.26629862 eV

  energy without entropy =     -103.26381479  energy(sigma->0) =     -103.26505671


--------------------------------------------------------------------------------------------------------




--------------------------------------- Iteration      1(  14)  ---------------------------------------


    POTLOK:  cpu time    0.0982: real time    0.0984
    SETDIJ:  cpu time    0.0363: real time    0.0363
    EDDIAG:  cpu time    5.4665: real time    5.4746
  RMM-DIIS:  cpu time   18.1752: real time   18.2034
    ORTHCH:  cpu time    1.0270: real time    1.0284
       DOS:  cpu time    0.0058: real time    0.0058
    CHARGE:  cpu time    1.0835: real time    1.0843
    MIXING:  cpu time    0.0024: real time    0.0024
    --------------------------------------------
      LOOP:  cpu time   25.8949: real time   25.9337

 eigenvalue-minimisations  : 22607
 total energy-change (2. order) :-0.1157384E-01  (-0.9248263E-02)
 number of electron     127.9999777 magnetization      17.5974301
 augmentation part       67.7312826 magnetization      13.0761296

 Broyden mixing:
  rms(total) = 0.15847E+00    rms(broyden)= 0.15847E+00
  rms(prec ) = 0.23218E+00
  weight for this iteration     100.00

 eigenvalues of (default mixing * dielectric matrix)
  average eigenvalue GAMMA=   0.7032
  2.0884  1.0260  1.0260  0.5964  0.5964  0.1353  0.3762  0.2059  0.2784

 Free energy of the ion-electron system (eV)
  ---------------------------------------------------
  alpha Z        PSCENC =       528.06544294
  Ewald energy   TEWEN  =     -9184.68007216
  -Hartree energ DENC   =     -3027.64755004
  -exchange      EXHF   =         0.00000000
  -V(xc)+E(xc)   XCENC  =        75.40099160
  PAW double counting   =     12783.45009836   -13127.77344253
  entropy T*S    EENTRO =        -0.00229496
  eigenvalues    EBANDS =       620.44700223
  atomic energy  EATOM  =     11229.46195210
  Solvation  Ediel_sol  =         0.00000000
  ---------------------------------------------------
  free energy    TOTEN  =      -103.27787246 eV

  energy without entropy =     -103.27557750  energy(sigma->0) =     -103.27672498


--------------------------------------------------------------------------------------------------------




--------------------------------------- Iteration      1(  15)  ---------------------------------------


    POTLOK:  cpu time    0.1120: real time    0.1128
    SETDIJ:  cpu time    0.0364: real time    0.0364
    EDDIAG:  cpu time    5.5012: real time    5.5101
  RMM-DIIS:  cpu time   17.6393: real time   17.6655
    ORTHCH:  cpu time    1.0233: real time    1.0245
       DOS:  cpu time    0.0059: real time    0.0059
    CHARGE:  cpu time    1.0921: real time    1.0930
    MIXING:  cpu time    0.0026: real time    0.0026
    --------------------------------------------
      LOOP:  cpu time   25.4126: real time   25.4508

 eigenvalue-minimisations  : 22052
 total energy-change (2. order) : 0.5559180E-02  (-0.3784832E-02)
 number of electron     127.9999779 magnetization      17.6223968
 augmentation part       67.6913492 magnetization      13.0935198

 Broyden mixing:
  rms(total) = 0.70093E-01    rms(broyden)= 0.70091E-01
  rms(prec ) = 0.92952E-01
  weight for this iteration     100.00

 eigenvalues of (default mixing * dielectric matrix)
  average eigenvalue GAMMA=   0.7329
  2.2656  1.1122  1.1122  0.6817  0.6817  0.5463  0.1353  0.2059  0.3208  0.2670

 Free energy of the ion-electron system (eV)
  ---------------------------------------------------
  alpha Z        PSCENC =       528.06544294
  Ewald energy   TEWEN  =     -9184.68007216
  -Hartree energ DENC   =     -3027.95584294
  -exchange      EXHF   =         0.00000000
  -V(xc)+E(xc)   XCENC  =        75.43339739
  PAW double counting   =     12816.67038178   -13161.42379250
  entropy T*S    EENTRO =        -0.00239868
  eigenvalues    EBANDS =       621.15861879
  atomic energy  EATOM  =     11229.46195210
  Solvation  Ediel_sol  =         0.00000000
  ---------------------------------------------------
  free energy    TOTEN  =      -103.27231328 eV

  energy without entropy =     -103.26991460  energy(sigma->0) =     -103.27111394


--------------------------------------------------------------------------------------------------------




--------------------------------------- Iteration      1(  16)  ---------------------------------------


    POTLOK:  cpu time    0.0974: real time    0.0975
    SETDIJ:  cpu time    0.0363: real time    0.0364
    EDDIAG:  cpu time    5.5029: real time    5.5104
  RMM-DIIS:  cpu time   19.5305: real time   19.5608
    ORTHCH:  cpu time    1.0261: real time    1.0272
       DOS:  cpu time    0.0059: real time    0.0059
    CHARGE:  cpu time    1.0967: real time    1.0974
    MIXING:  cpu time    0.0027: real time    0.0027
    --------------------------------------------
[...]
         0         1         2         3         4         5         6         7         8         9
 total charge-density along one line

 pseudopotential strength for first ion, spin component:           1
 -1.856  -0.002  -0.013  -0.005   0.002  -2.481  -0.002  -0.012
 -0.002  -1.851  -0.005  -0.004   0.004  -0.002  -2.477  -0.005
 -0.013  -0.005  -1.932  -0.013   0.003  -0.012  -0.005  -2.554
 -0.005  -0.004  -0.013  -1.855  -0.023  -0.005  -0.004  -0.013
  0.002   0.004   0.003  -0.023  -1.936   0.002   0.004   0.003
 -2.481  -0.002  -0.012  -0.005   0.002  -3.038  -0.002  -0.011
 -0.002  -2.477  -0.005  -0.004   0.004  -0.002  -3.034  -0.005
 -0.012  -0.005  -2.554  -0.013   0.003  -0.011  -0.005  -3.107
 -0.005  -0.004  -0.013  -2.481  -0.022  -0.005  -0.004  -0.012
  0.002   0.004   0.003  -0.022  -2.558   0.002   0.004   0.003
 -0.002  -0.000  -0.000   0.005   0.001  -0.002  -0.000  -0.000
 -0.005  -0.001  -0.000   0.009   0.002  -0.004  -0.001  -0.000
  0.002  -0.006   0.005  -0.001   0.009   0.002  -0.006   0.005
 -0.001  -0.004  -0.009   0.002   0.000  -0.001  -0.004  -0.009
 -0.004  -0.001  -0.000  -0.006   0.000  -0.004  -0.001  -0.000
  0.002  -0.006   0.005  -0.002   0.009   0.002  -0.006   0.005
 -0.002  -0.003  -0.009   0.002   0.000  -0.002  -0.003  -0.009
 -0.003  -0.002  -0.000  -0.006   0.000  -0.003  -0.002  -0.000
 pseudopotential strength for first ion, spin component:           2
 -1.540  -0.005   0.021  -0.009  -0.000  -2.181  -0.005   0.020
 -0.005  -1.529  -0.000  -0.002   0.000  -0.005  -2.171  -0.000
  0.021  -0.000  -1.441   0.006  -0.003   0.020  -0.000  -2.086
 -0.009  -0.002   0.006  -1.530   0.010  -0.009  -0.002   0.005
 -0.000   0.000  -0.003   0.010  -1.449  -0.000   0.001  -0.002
 -2.181  -0.005   0.020  -0.009  -0.000  -2.752  -0.005   0.019
 -0.005  -2.171  -0.000  -0.002   0.001  -0.005  -2.742  -0.000
  0.020  -0.000  -2.086   0.005  -0.002   0.019  -0.000  -2.660
 -0.009  -0.002   0.005  -2.171   0.009  -0.009  -0.002   0.005
 -0.000   0.001  -0.002   0.009  -2.093  -0.000   0.001  -0.002
  0.004  -0.001  -0.002  -0.002  -0.001   0.004  -0.001  -0.002
  0.008  -0.002  -0.003  -0.004  -0.002   0.007  -0.002  -0.003
 -0.002  -0.007   0.007   0.001   0.012  -0.002  -0.007   0.006
  0.001  -0.013  -0.010  -0.002   0.000   0.001  -0.012  -0.010
 -0.013   0.001   0.000  -0.007  -0.000  -0.012   0.001   0.000
 -0.003  -0.007   0.007   0.002   0.012  -0.003  -0.007   0.007
  0.002  -0.015  -0.010  -0.003   0.000   0.002  -0.014  -0.010
 -0.015   0.002   0.001  -0.007  -0.001  -0.014   0.002   0.001
 total augmentation occupancy for first ion, spin component:           1
  2.086   0.035   0.041   0.040   0.015  -0.569  -0.024  -0.032  -0.054  -0.008   0.015   0.001  -0.007   0.003   0.025  -0.000
  0.035   2.151  -0.016  -0.012  -0.012  -0.024  -0.611   0.008   0.010   0.008  -0.078   0.030   0.030   0.025   0.000  -0.012
  0.041  -0.016   2.751  -0.004  -0.021  -0.033   0.008  -1.065  -0.002   0.012   0.018   0.002   0.032  -0.054  -0.006   0.003
  0.040  -0.012  -0.004   2.139  -0.014  -0.054   0.010  -0.002  -0.606   0.001  -0.012  -0.001  -0.001   0.003   0.032   0.000
  0.015  -0.012  -0.021  -0.014   2.760  -0.008   0.008   0.013   0.001  -1.072   0.033  -0.003   0.064  -0.001  -0.003   0.005
 -0.569  -0.024  -0.033  -0.054  -0.008   0.844   0.017   0.026   0.066   0.005  -0.010  -0.001   0.005  -0.002   0.003   0.000
 -0.024  -0.611   0.008   0.010   0.008   0.017   0.871   0.001  -0.010  -0.016   0.049  -0.019  -0.003   0.004  -0.001   0.002
 -0.032   0.008  -1.065  -0.002   0.013   0.026   0.001   1.116   0.003  -0.004  -0.007  -0.002  -0.031   0.052   0.003   0.004
 -0.054   0.010  -0.002  -0.606   0.001   0.066  -0.010   0.003   0.871   0.003   0.009   0.001  -0.000  -0.001  -0.006  -0.000
 -0.008   0.008   0.012   0.001  -1.072   0.005  -0.016  -0.004   0.003   1.117  -0.024   0.002  -0.060   0.001   0.003   0.006
  0.015  -0.078   0.018  -0.012   0.033  -0.010   0.049  -0.007   0.009  -0.024   2.104  -0.273   0.055   0.045  -0.001  -0.007
  0.001   0.030   0.002  -0.001  -0.003  -0.001  -0.019  -0.002   0.001   0.002  -0.273   0.045   0.001   0.002  -0.000  -0.000
 -0.007   0.030   0.032  -0.001   0.064   0.005  -0.003  -0.031  -0.000  -0.060   0.055   0.001   0.258  -0.001   0.000  -0.026
  0.003   0.025  -0.054   0.003  -0.001  -0.002   0.004   0.052  -0.001   0.001   0.045   0.002  -0.001   0.254  -0.001  -0.002
  0.025   0.000  -0.006   0.032  -0.003   0.003  -0.001   0.003  -0.006   0.003  -0.001  -0.000   0.000  -0.001   0.254   0.000
 -0.000  -0.012   0.003   0.000   0.005   0.000   0.002   0.004  -0.000   0.006  -0.007  -0.000  -0.026  -0.002   0.000   0.003
  0.000  -0.013  -0.006  -0.001   0.000  -0.000   0.002  -0.006   0.000  -0.000  -0.005  -0.001  -0.002  -0.026   0.000   0.000
 -0.012   0.000  -0.000  -0.012  -0.000   0.002  -0.000   0.000   0.002  -0.000   0.000  -0.000   0.000   0.000  -0.026  -0.000
 total augmentation occupancy for first ion, spin component:           2
  0.548   0.110   0.177   0.003   0.016  -0.339  -0.099  -0.103  -0.010  -0.016   0.048  -0.001  -0.041   0.041  -0.084   0.002
  0.110   0.574  -0.017  -0.078  -0.044  -0.099  -0.352   0.021   0.069   0.031  -0.022   0.001  -0.004  -0.084   0.042  -0.001
  0.177  -0.017   0.944   0.051  -0.021  -0.102   0.021  -0.459  -0.017   0.010  -0.018  -0.002  -0.020   0.003  -0.005   0.002
  0.003  -0.078   0.051   0.650   0.132  -0.010   0.069  -0.016  -0.412  -0.065  -0.039   0.002   0.046  -0.033  -0.007  -0.001
  0.016  -0.044  -0.021   0.132   0.930  -0.016   0.031   0.010  -0.066  -0.454  -0.034  -0.005  -0.034   0.001   0.019   0.003
 -0.339  -0.099  -0.102  -0.010  -0.016   0.169   0.084   0.052   0.014   0.014  -0.031   0.006   0.027  -0.030   0.054  -0.003
 -0.099  -0.352   0.021   0.069   0.031   0.084   0.173  -0.021  -0.058  -0.020   0.018  -0.002   0.003   0.053  -0.030   0.001
 -0.103   0.021  -0.459  -0.016   0.010   0.052  -0.021   0.142  -0.003  -0.003   0.011  -0.000   0.020  -0.004   0.006  -0.001
 -0.010   0.069  -0.017  -0.412  -0.066   0.014  -0.058  -0.003   0.219   0.024   0.025  -0.005  -0.033   0.019   0.005   0.002
 -0.016   0.031   0.010  -0.065  -0.454   0.014  -0.020  -0.003   0.024   0.144   0.023   0.000   0.034  -0.000  -0.018  -0.003
  0.048  -0.022  -0.018  -0.039  -0.034  -0.031   0.018   0.011   0.025   0.023  -0.087   0.017  -0.009   0.001  -0.005  -0.002
 -0.001   0.001  -0.002   0.002  -0.005   0.006  -0.002  -0.000  -0.005   0.000   0.017  -0.003  -0.004   0.000  -0.002   0.001
 -0.041  -0.004  -0.020   0.046  -0.034   0.027   0.003   0.020  -0.033   0.034  -0.009  -0.004  -0.009   0.003  -0.006   0.001
  0.041  -0.084   0.003  -0.033   0.001  -0.030   0.053  -0.004   0.019  -0.000   0.001   0.000   0.003  -0.002   0.006   0.000
 -0.084   0.042  -0.005  -0.007   0.019   0.054  -0.030   0.006   0.005  -0.018  -0.005  -0.002  -0.006   0.006  -0.001   0.001
  0.002  -0.001   0.002  -0.001   0.003  -0.003   0.001  -0.001   0.002  -0.003  -0.002   0.001   0.001   0.000   0.001  -0.000
 -0.002   0.002  -0.003   0.001   0.000   0.003  -0.005   0.002  -0.002  -0.000   0.000  -0.000  -0.000   0.000  -0.001   0.000
  0.002  -0.001  -0.001  -0.001  -0.001  -0.005   0.002   0.001   0.001   0.001  -0.001   0.000   0.001  -0.001   0.000  -0.000


------------------------ aborting loop because EDIFF is reached ----------------------------------------





 total charge     

# of ion       s       p       d       tot
------------------------------------------
    1        0.475   0.421   8.370   9.266
    2        0.474   0.422   8.360   9.256
    3        0.474   0.423   8.366   9.263
    4        0.472   0.426   8.369   9.267
    5        0.472   0.426   8.369   9.267
    6        0.474   0.423   8.366   9.263
    7        0.474   0.422   8.360   9.256
    8        0.475   0.421   8.370   9.266
    9        0.329   0.305   4.957   5.592
   10        0.326   0.314   4.938   5.578
   11        0.322   0.314   4.915   5.552
   12        0.324   0.311   4.917   5.552
   13        0.350   0.352   4.979   5.680
   14        0.352   0.355   4.971   5.678
   15        1.236   1.667   0.289   3.191
   16        1.235   1.669   0.287   3.191
--------------------------------------------------
tot          8.264   8.670  97.184 114.119



 magnetization (x)

# of ion       s       p       d       tot
------------------------------------------
    1       -0.015  -0.007   0.446   0.423
    2       -0.014  -0.008   0.446   0.423
    3       -0.014  -0.009   0.428   0.405
    4       -0.014  -0.004   0.451   0.432
    5       -0.014  -0.004   0.451   0.432
    6       -0.014  -0.009   0.428   0.405
    7       -0.014  -0.008   0.446   0.423
    8       -0.015  -0.007   0.446   0.423
    9        0.031   0.000   3.580   3.611
   10        0.021   0.022   3.565   3.608
   11       -0.041  -0.046  -3.520  -3.607
   12        0.029   0.031   3.571   3.631
   13        0.018   0.008   3.342   3.368
   14        0.025   0.017   3.305   3.347
   15        0.002   0.014  -0.008   0.008
   16       -0.016  -0.050  -0.003  -0.069
--------------------------------------------------
tot         -0.048  -0.061  17.372  17.263

    CHARGE:  cpu time    1.1886: real time    1.1896
    FORLOC:  cpu time    0.0073: real time    0.0073
    FORNL :  cpu time    8.3490: real time    8.3579
    STRESS:  cpu time   25.0842: real time   25.1100
    FORCOR:  cpu time    0.1009: real time    0.1010
    FORHAR:  cpu time    0.0162: real time    0.0162
    MIXING:  cpu time    0.0017: real time    0.0017
    OFIELD:  cpu time    0.0000: real time    0.0000

  FORCE on cell =-STRESS in cart. coord.  units (eV):
  Direction    XX          YY          ZZ          XY          YZ          ZX
  --------------------------------------------------------------------------------------
  Alpha Z   528.06544   528.06544   528.06544
  Ewald   -2822.21874 -3210.53653 -3152.09975    -0.00000    -0.00000    -0.00000
  Hartree  1237.99960   866.52373   922.60679    -0.00000    -0.00000    -0.00000
  E(xc)    -670.31474  -670.16196  -670.61777    -0.00000     0.00000    -0.00000
  Local    -767.98554    -5.45838  -126.33888    -0.00000     0.00000     0.00000
  n-local  -148.19467  -148.60977  -147.18291    -0.19261    -0.24764    -0.28685
  augment  1579.86913  1577.71522  1581.04571    -0.00000    -0.00000    -0.00000
  Kinetic  1061.50329  1059.78780  1063.56043     0.49969     0.45190     0.29006
  Fock        0.00000     0.00000     0.00000     0.00000     0.00000     0.00000
  -------------------------------------------------------------------------------------
  Total      -1.27622    -2.67445    -0.96093    -0.00000     0.00000     0.00000
  in kB      -9.59568   -20.10876    -7.22506    -0.00000     0.00000     0.00000
  external pressure =      -12.31 kB  Pullay stress =        0.00 kB


 VOLUME and BASIS-vectors are now :
 -----------------------------------------------------------------------------
  energy-cutoff  :      550.00
  volume of cell :      213.09
      direct lattice vectors                 reciprocal lattice vectors
     5.972917778  0.000000000  0.000000000     0.167422362  0.000000000  0.000000000
     0.000000000  5.972917778  0.000000000     0.000000000  0.167422362  0.000000000
     0.000000000  0.000000000  5.972917778     0.000000000  0.000000000  0.167422362

  length of vectors
     5.972917778  5.972917778  5.972917778     0.167422362  0.167422362  0.167422362


 FORCES acting on ions
    electron-ion (+dipol)            ewald-force                    non-local-force                 convergence-correction
 -----------------------------------------------------------------------------------------------
   0.201E+00 0.165E+03 0.148E+03   -.188E+00 -.162E+03 -.146E+03   -.163E-01 -.254E+01 -.227E+01   -.229E-02 0.377E-02 -.121E-01
   -.201E+00 0.165E+03 0.148E+03   0.188E+00 -.162E+03 -.146E+03   0.163E-01 -.254E+01 -.227E+01   0.229E-02 0.377E-02 -.121E-01
   0.201E+00 -.165E+03 0.148E+03   -.188E+00 0.162E+03 -.146E+03   -.163E-01 0.254E+01 -.227E+01   -.229E-02 -.377E-02 -.121E-01
   -.201E+00 -.165E+03 0.148E+03   0.188E+00 0.162E+03 -.146E+03   0.163E-01 0.254E+01 -.227E+01   0.229E-02 -.377E-02 -.121E-01
   0.201E+00 0.165E+03 -.148E+03   -.188E+00 -.162E+03 0.146E+03   -.163E-01 -.254E+01 0.227E+01   -.229E-02 0.377E-02 0.121E-01
   -.201E+00 0.165E+03 -.148E+03   0.188E+00 -.162E+03 0.146E+03   0.163E-01 -.254E+01 0.227E+01   0.229E-02 0.377E-02 0.121E-01
   0.201E+00 -.165E+03 -.148E+03   -.188E+00 0.162E+03 0.146E+03   -.163E-01 0.254E+01 0.227E+01   -.229E-02 -.377E-02 0.121E-01
   -.201E+00 -.165E+03 -.148E+03   0.188E+00 0.162E+03 0.146E+03   0.163E-01 0.254E+01 0.227E+01   0.229E-02 -.377E-02 0.121E-01
   0.191E-12 0.153E-11 0.120E-11   0.119E-12 -.201E-13 -.359E-15   0.000E+00 0.000E+00 0.000E+00   -.419E-12 0.388E-12 0.951E-12
   -.327E-13 0.244E-12 -.686E-13   0.252E-13 -.201E-13 -.450E-15   0.000E+00 0.000E+00 0.000E+00   0.408E-12 0.402E-12 0.954E-12
   -.266E-13 -.253E-13 0.222E-12   0.145E-13 -.148E-13 0.234E-13   0.000E+00 0.000E+00 0.000E+00   -.288E-12 0.446E-12 0.626E-12
   0.186E-12 -.286E-13 0.259E-11   0.120E-13 -.716E-13 -.507E-14   0.000E+00 0.000E+00 0.000E+00   0.279E-12 0.444E-12 0.607E-12
   0.188E-12 0.389E-12 0.111E-11   -.509E-13 -.861E-13 -.144E-13   0.000E+00 0.000E+00 0.000E+00   0.134E-11 -.323E-12 -.421E-12
   -.422E-13 0.240E-12 0.212E-12   -.450E-13 0.418E-13 -.145E-13   0.000E+00 0.000E+00 0.000E+00   -.135E-11 -.311E-12 -.425E-12
   0.190E-13 -.926E-14 -.216E-13   -.306E-13 0.461E-14 0.237E-13   0.000E+00 0.000E+00 0.000E+00   0.277E-12 -.719E-13 -.507E-13
   -.408E-13 0.326E-13 0.524E-12   0.377E-13 0.117E-13 -.477E-14   0.000E+00 0.000E+00 0.000E+00   -.282E-12 -.708E-13 -.487E-13
 -----------------------------------------------------------------------------------------------
   0.357E-11 0.175E-10 0.137E-11   -.603E-16 -.410E-13 0.121E-12   0.347E-16 0.888E-15 -.444E-15   0.109E-11 -.473E-12 -.133E-10


 POSITION                                       TOTAL-FORCE (eV/Angst)
 -----------------------------------------------------------------------------------
      1.49344      1.59518      1.57756        -0.005472      0.003885     -0.005451
      4.47948      1.59518      1.57756         0.005472      0.003885     -0.005451
      1.49344      4.37774      1.57756        -0.005472     -0.003885     -0.005451
      4.47948      4.37774      1.57756         0.005472     -0.003885     -0.005451
      1.49344      1.59518      4.39536        -0.005472      0.003885      0.005451
      4.47948      1.59518      4.39536         0.005472      0.003885      0.005451
      1.49344      4.37774      4.39536        -0.005472     -0.003885      0.005451
      4.47948      4.37774      4.39536         0.005472     -0.003885      0.005451
      2.98646      2.98646      0.00000         0.000000      0.000000      0.000000
      0.00000      2.98646      0.00000         0.000000      0.000000      0.000000
      0.00000      0.00000      2.98646         0.000000      0.000000      0.000000
      2.98646      0.00000      2.98646         0.000000      0.000000      0.000000
      2.98646      2.98646      2.98646         0.000000      0.000000      0.000000
      0.00000      2.98646      2.98646         0.000000      0.000000      0.000000
      0.00000      0.00000      0.00000         0.000000      0.000000      0.000000
      2.98646      0.00000      0.00000         0.000000      0.000000      0.000000
 -----------------------------------------------------------------------------------
    total drift:                                0.000000      0.000000     -0.000000


--------------------------------------------------------------------------------------------------------



  FREE ENERGIE OF THE ION-ELECTRON SYSTEM (eV)
  ---------------------------------------------------
  free  energy   TOTEN  =      -103.27348106 eV

  energy  without entropy=     -103.27106970  energy(sigma->0) =     -103.27227538

 d Force = 0.5724580E-04[ 0.448E-04, 0.697E-04]  d Energy = 0.6350170E-04-0.626E-05
 d Force = 0.1466127E+00[ 0.145E+00, 0.148E+00]  d Ewald  = 0.1466127E+00-0.964E-09


--------------------------------------------------------------------------------------------------------


    POTLOK:  cpu time    0.1501: real time    0.1503


--------------------------------------------------------------------------------------------------------


 Steepest descent step on ions:
 trial-energy change:   -0.000064  1 .order   -0.000057   -0.000070   -0.000045
  (g-gl).g = 0.697E-04      g.g   = 0.697E-04  gl.gl    = 0.000E+00
 g(Force)  = 0.697E-04   g(Stress)= 0.000E+00 ortho     = 0.000E+00
 gamma     =   0.00000
 trial     =   1.00000
 opt step  =   2.79822  (harmonic =   2.79822) maximal distance =0.00117436
 next E    =  -103.273515   (d E  =  -0.00010)


--------------------------------------------------------------------------------------------------------


  
 reached required accuracy - stopping structural energy minimisation
     LOOP+:  cpu time  145.0323: real time  145.2064
    4ORBIT:  cpu time    0.0000: real time    0.0000



 total charge     

# of ion       s       p       d       tot
------------------------------------------
    1        0.475   0.421   8.370   9.266
    2        0.474   0.422   8.360   9.256
    3        0.474   0.423   8.366   9.263
    4        0.472   0.426   8.369   9.267
    5        0.472   0.426   8.369   9.267
    6        0.474   0.423   8.366   9.263
    7        0.474   0.422   8.360   9.256
    8        0.475   0.421   8.370   9.266
    9        0.329   0.305   4.957   5.592
   10        0.326   0.314   4.938   5.578
   11        0.322   0.314   4.915   5.552
   12        0.324   0.311   4.917   5.552
   13        0.350   0.352   4.979   5.680
   14        0.352   0.355   4.971   5.678
   15        1.236   1.667   0.289   3.191
   16        1.235   1.669   0.287   3.191
--------------------------------------------------
tot          8.264   8.670  97.184 114.119



 magnetization (x)

# of ion       s       p       d       tot
------------------------------------------
    1       -0.015  -0.007   0.446   0.423
    2       -0.014  -0.008   0.446   0.423
    3       -0.014  -0.009   0.428   0.405
    4       -0.014  -0.004   0.451   0.432
    5       -0.014  -0.004   0.451   0.432
    6       -0.014  -0.009   0.428   0.405
    7       -0.014  -0.008   0.446   0.423
    8       -0.015  -0.007   0.446   0.423
    9        0.031   0.000   3.580   3.611
   10        0.021   0.022   3.565   3.608
   11       -0.041  -0.046  -3.520  -3.607
   12        0.029   0.031   3.571   3.631
   13        0.018   0.008   3.342   3.368
   14        0.025   0.017   3.305   3.347
   15        0.002   0.014  -0.008   0.008
   16       -0.016  -0.050  -0.003  -0.069
--------------------------------------------------
tot         -0.048  -0.061  17.372  17.263


 total amount of memory used by VASP MPI-rank0   139243. kBytes
=======================================================================

   base      :      30000. kBytes
   nonlr-proj:       6803. kBytes
   fftplans  :       1269. kBytes
   grid      :       6573. kBytes
   one-center:        497. kBytes
   wavefun   :      94101. kBytes

  
  
 General timing and accounting informations for this job:
 ========================================================
  
                  Total CPU time used (sec):      814.409
                            User time (sec):      770.739
                          System time (sec):       43.670
                         Elapsed time (sec):      817.318
  
                   Maximum memory used (kb):      185064.
                   Average memory used (kb):           0.
  
                          Minor page faults:     19850761
                          Major page faults:           16
                 Voluntary context switches:         1970
