 vasp.5.4.4.18Apr17-6-g9f103f2a35 (build May 21 2018 20:56:50) complex           
 executed on             LinuxGNU date 2021.10.15  15:43:05
 running on   12 total cores
 distrk:  each k-point on   12 cores,    1 groups
 distr:  one band on NCORES_PER_BAND=   1 cores,   12 groups


--------------------------------------------------------------------------------------------------------


 INCAR:
 POTCAR:    PAW_PBE Ni 02Aug2007                  
 POTCAR:    PAW_PBE Mn 06Sep2000                  
 POTCAR:    PAW_PBE In 08Apr2002                  

 ----------------------------------------------------------------------------- 
|                                                                             |
|           W    W    AA    RRRRR   N    N  II  N    N   GGGG   !!!           |
|           W    W   A  A   R    R  NN   N  II  NN   N  G    G  !!!           |
|           W    W  A    A  R    R  N N  N  II  N N  N  G       !!!           |
|           W WW W  AAAAAA  RRRRR   N  N N  II  N  N N  G  GGG   !            |
|           WW  WW  A    A  R   R   N   NN  II  N   NN  G    G                |
|           W    W  A    A  R    R  N    N  II  N    N   GGGG   !!!           |
|                                                                             |
|      For optimal performance we recommend to set                            |
|        NCORE= 4 - approx SQRT( number of cores)                             |
|      NCORE specifies how many cores store one orbital (NPAR=cpu/NCORE).     |
|      This setting can  greatly improve the performance of VASP for DFT.     |
|      The default,   NCORE=1            might be grossly inefficient         |
|      on modern multi-core architectures or massively parallel machines.     |
|      Do your own testing !!!!                                               |
|      Unfortunately you need to use the default for GW and RPA calculations. |
|      (for HF NCORE is supported but not extensively tested yet)             |
|                                                                             |
 ----------------------------------------------------------------------------- 

 POTCAR:    PAW_PBE Ni 02Aug2007                  
   VRHFIN =Ni:                                                                  
   LEXCH  = PE                                                                  
   EATOM  =  1077.6739 eV,   79.2068 Ry                                         
                                                                                
   TITEL  = PAW_PBE Ni 02Aug2007                                                
   LULTRA =        F    use ultrasoft PP ?                                      
   IUNSCR =        1    unscreen: 0-lin 1-nonlin 2-no                           
   RPACOR =    2.000    partial core radius                                     
   POMASS =   58.690; ZVAL   =   10.000    mass and valenz                      
   RCORE  =    2.300    outmost cutoff radius                                   
   RWIGS  =    2.430; RWIGS  =    1.286    wigner-seitz radius (au A)           
   ENMAX  =  269.532; ENMIN  =  202.149 eV                                      
   RCLOC  =    1.201    cutoff for local pot                                    
   LCOR   =        T    correct aug charges                                     
   LPAW   =        T    paw PP                                                  
   EAUG   =  544.565                                                            
   DEXC   =    0.000                                                            
   RMAX   =    2.357    core radius for proj-oper                               
   RAUG   =    1.300    factor for augmentation sphere                          
   RDEP   =    2.390    radius for radial grids                                 
   RDEPT  =    1.838    core radius for aug-charge                              
                                                                                
   Atomic configuration                                                         
    9 entries                                                                   
     n  l   j            E        occ.                                          
     1  0  0.50     -8206.4253   2.0000                                         
     2  0  0.50      -976.1748   2.0000                                         
     2  1  1.50      -839.0571   6.0000                                         
     3  0  0.50      -105.9991   2.0000                                         
     3  1  1.50       -66.4603   6.0000                                         
     3  2  2.50        -4.6458   9.0000                                         
     4  0  0.50        -4.4926   1.0000                                         
     4  1  1.50        -4.0817   0.0000                                         
     4  3  2.50        -1.3606   0.0000                                         
   Description                                                                  
     l       E           TYP  RCUT    TYP  RCUT                                 
     2     -4.6457903     23  2.300                                             
     2     -6.0063729     23  2.300                                             
     0     -4.4925590     23  2.300                                             
     0      5.0102601     23  2.300                                             
     1     -2.7211652     23  2.300                                             
     1     16.5183231     23  2.300                                             
  local pseudopotential read in
  partial core-charges read in
  partial kinetic energy density read in
  atomic valenz-charges read in
  non local Contribution for L=           2  read in
    real space projection operators read in
  non local Contribution for L=           2  read in
    real space projection operators read in
  non local Contribution for L=           0  read in
    real space projection operators read in
  non local Contribution for L=           0  read in
    real space projection operators read in
  non local Contribution for L=           1  read in
    real space projection operators read in
  non local Contribution for L=           1  read in
    real space projection operators read in
    PAW grid and wavefunctions read in

   number of l-projection  operators is LMAX  =           6
   number of lm-projection operators is LMMAX =          18

 POTCAR:    PAW_PBE Mn 06Sep2000                  
   VRHFIN =Mn: d6 s1                                                            
   LEXCH  = PE                                                                  
   EATOM  =   416.7541 eV,   30.6306 Ry                                         
                                                                                
   TITEL  = PAW_PBE Mn 06Sep2000                                                
   LULTRA =        F    use ultrasoft PP ?                                      
   IUNSCR =        1    unscreen: 0-lin 1-nonlin 2-no                           
   RPACOR =    2.000    partial core radius                                     
   POMASS =   54.938; ZVAL   =    7.000    mass and valenz                      
   RCORE  =    2.300    outmost cutoff radius                                   
   RWIGS  =    2.500; RWIGS  =    1.323    wigner-seitz radius (au A)           
   ENMAX  =  269.864; ENMIN  =  202.398 eV                                      
   RCLOC  =    1.725    cutoff for local pot                                    
   LCOR   =        T    correct aug charges                                     
   LPAW   =        T    paw PP                                                  
   EAUG   =  500.711                                                            
   DEXC   =    0.000                                                            
   RMAX   =    2.343    core radius for proj-oper                               
   RAUG   =    1.300    factor for augmentation sphere                          
   RDEP   =    2.338    radius for radial grids                                 
   RDEPT  =    1.911    core radius for aug-charge                              
                                                                                
   Atomic configuration                                                         
    9 entries                                                                   
     n  l   j            E        occ.                                          
     1  0  0.50     -6424.8288   2.0000                                         
     2  0  0.50      -739.1154   2.0000                                         
     2  1  1.50      -625.3949   6.0000                                         
     3  0  0.50       -81.6100   2.0000                                         
     3  1  1.50       -50.4667   6.0000                                         
     3  2  2.50        -3.3745   6.0000                                         
     4  0  0.50        -4.1331   1.0000                                         
     4  1  0.50        -4.0817   0.0000                                         
     4  3  2.50        -1.3606   0.0000                                         
   Description                                                                  
     l       E           TYP  RCUT    TYP  RCUT                                 
     2     -3.3744664     23  2.300                                             
     2     -4.7350490     23  2.300                                             
     0     -4.1331408     23  2.300                                             
     0      7.6656614     23  2.300                                             
     1     -2.7211652     23  2.300                                             
     1     20.4087390     23  2.300                                             
  local pseudopotential read in
  partial core-charges read in
  partial kinetic energy density read in
  atomic valenz-charges read in
  non local Contribution for L=           2  read in
    real space projection operators read in
  non local Contribution for L=           2  read in
    real space projection operators read in
  non local Contribution for L=           0  read in
    real space projection operators read in
  non local Contribution for L=           0  read in
    real space projection operators read in
  non local Contribution for L=           1  read in
    real space projection operators read in
  non local Contribution for L=           1  read in
    real space projection operators read in
    PAW grid and wavefunctions read in

   number of l-projection  operators is LMAX  =           6
   number of lm-projection operators is LMMAX =          18

 POTCAR:    PAW_PBE In 08Apr2002                  
   VRHFIN =In: s2p1                                                             
   LEXCH  = PE                                                                  
   EATOM  =    53.7908 eV,    3.9535 Ry                                         
                                                                                
   TITEL  = PAW_PBE In 08Apr2002                                                
   LULTRA =        F    use ultrasoft PP ?                                      
   IUNSCR =        1    unscreen: 0-lin 1-nonlin 2-no                           
   RPACOR =    2.400    partial core radius                                     
   POMASS =  114.820; ZVAL   =    3.000    mass and valenz                      
   RCORE  =    3.100    outmost cutoff radius                                   
   RWIGS  =    3.170; RWIGS  =    1.677    wigner-seitz radius (au A)           
   ENMAX  =   95.934; ENMIN  =   71.951 eV                                      
   ICORE  =        3    local potential                                         
   LCOR   =        T    correct aug charges                                     
   LPAW   =        T    paw PP                                                  
   EAUG   =  237.125                                                            
   DEXC   =    0.000                                                            
   RMAX   =    3.168    core radius for proj-oper                               
   RAUG   =    1.300    factor for augmentation sphere                          
   RDEP   =    3.187    radius for radial grids                                 
   RDEPT  =    2.711    core radius for aug-charge                              
                                                                                
   Atomic configuration                                                         
   13 entries                                                                   
     n  l   j            E        occ.                                          
     1  0  0.50    -27747.9169   2.0000                                         
     2  0  0.50     -4154.4438   2.0000                                         
     2  1  1.50     -3728.4305   6.0000                                         
     3  0  0.50      -788.3680   2.0000                                         
     3  1  1.50      -648.9215   6.0000                                         
     3  2  2.50      -432.5893  10.0000                                         
     4  0  0.50      -119.6363   2.0000                                         
     4  1  1.50       -78.1086   6.0000                                         
     4  2  2.50       -18.6227  10.0000                                         
     5  0  0.50        -8.2107   2.0000                                         
     5  1  0.50        -2.5185   1.0000                                         
     5  2  2.50        -1.3606   0.0000                                         
     4  3  2.50        -2.7212   0.0000                                         
   Description                                                                  
     l       E           TYP  RCUT    TYP  RCUT                                 
     0     -8.2107306     23  3.100                                             
     0     -6.1485975     23  3.100                                             
     1     -2.5184867     23  3.100                                             
     1      3.2427302     23  3.100                                             
     2     -1.3605826     23  3.100                                             
     3     -1.3605826     23  3.100                                             
  local pseudopotential read in
  partial core-charges read in
  partial kinetic energy density read in
  atomic valenz-charges read in
  non local Contribution for L=           0  read in
    real space projection operators read in
  non local Contribution for L=           0  read in
    real space projection operators read in
  non local Contribution for L=           1  read in
    real space projection operators read in
  non local Contribution for L=           1  read in
    real space projection operators read in
  non local Contribution for L=           2  read in
    real space projection operators read in
    PAW grid and wavefunctions read in

   number of l-projection  operators is LMAX  =           5
   number of lm-projection operators is LMMAX =          13

 Optimization of the real space projectors (new method)

 maximal supplied QI-value         = 16.25
 optimisation between [QCUT,QGAM] = [ 11.86, 23.89] = [ 39.41,159.82] Ry 
 Optimized for a Real-space Cutoff    1.33 Angstroem

   l    n(q)    QCUT    max X(q) W(low)/X(q) W(high)/X(q)  e(spline) 
   2      9    11.864    60.317    0.21E-03    0.51E-03    0.25E-06
   2      9    11.864    55.921    0.21E-03    0.51E-03    0.26E-06
   0      9    11.864    51.690    0.22E-03    0.30E-04    0.17E-06
   0      9    11.864    30.015    0.20E-03    0.28E-04    0.15E-06
   1      9    11.864    18.849    0.76E-04    0.33E-03    0.17E-06
   1      9    11.864    14.624    0.60E-04    0.28E-03    0.15E-06
 Optimization of the real space projectors (new method)

 maximal supplied QI-value         = 16.25
 optimisation between [QCUT,QGAM] = [ 11.86, 23.89] = [ 39.41,159.82] Ry 
 Optimized for a Real-space Cutoff    1.36 Angstroem

   l    n(q)    QCUT    max X(q) W(low)/X(q) W(high)/X(q)  e(spline) 
   2      9    11.864   110.144    0.49E-03    0.50E-03    0.21E-06
   2      9    11.864   103.200    0.49E-03    0.51E-03    0.22E-06
   0     10    11.864    68.437    0.12E-03    0.41E-04    0.21E-06
   0     10    11.864    33.971    0.11E-03    0.36E-04    0.19E-06
   1      9    11.864    17.065    0.24E-03    0.26E-03    0.93E-07
   1      9    11.864    12.540    0.19E-03    0.20E-03    0.80E-07
 Optimization of the real space projectors (new method)

 maximal supplied QI-value         = 12.09
 optimisation between [QCUT,QGAM] = [ 11.97, 23.95] = [ 40.14,160.58] Ry 
 Optimized for a Real-space Cutoff    1.63 Angstroem

   l    n(q)    QCUT    max X(q) W(low)/X(q) W(high)/X(q)  e(spline) 
   0     12    11.973   106.980    0.33E-03    0.16E-03    0.25E-05
   0     12    11.973    81.086    0.37E-03    0.18E-03    0.28E-05
   1     11    11.973    53.097    0.22E-03    0.42E-03    0.40E-05
   1     11    11.973    32.621    0.20E-03    0.40E-03    0.37E-05
   2     11    11.973     8.820    0.30E-03    0.17E-03    0.41E-06
  PAW_PBE Ni 02Aug2007                  :
 energy of atom  1       EATOM=-1077.6739
 kinetic energy error for atom=    0.0027 (will be added to EATOM!!)
  PAW_PBE Mn 06Sep2000                  :
 energy of atom  2       EATOM= -416.7541
 kinetic energy error for atom=    0.0022 (will be added to EATOM!!)
  PAW_PBE In 08Apr2002                  :
 energy of atom  3       EATOM=  -53.7908
 kinetic energy error for atom=    0.0000 (will be added to EATOM!!)


 POSCAR: Ni2MnIn                                 
  positions in direct lattice
  velocities in cartesian coordinates
 exchange correlation table for  LEXCH =        8
   RHO(1)=    0.500       N(1)  =     2000
   RHO(2)=  100.500       N(2)  =     4000



--------------------------------------------------------------------------------------------------------


 ion  position               nearest neighbor table
   1  0.255  0.245  0.268-  12 2.48  11 2.52  13 2.52  14 2.55   9 2.61  15 2.64  16 2.64  10 2.67
                             5 2.77   3 2.92   2 2.92   3 3.04   2 3.04
   2  0.745  0.245  0.268-  12 2.48  11 2.52  13 2.52  14 2.55   9 2.61  15 2.64  16 2.64  10 2.67
                             6 2.77   4 2.92   1 2.92   4 3.04   1 3.04
   3  0.255  0.755  0.268-  12 2.48  11 2.52  13 2.52  14 2.55   9 2.61  15 2.64  16 2.64  10 2.67
                             7 2.77   4 2.92   1 2.92   1 3.04   4 3.04
   4  0.745  0.755  0.268-  12 2.48  11 2.52  13 2.52  14 2.55   9 2.61  15 2.64  16 2.64  10 2.67
                             8 2.77   3 2.92   2 2.92   3 3.04   2 3.04
   5  0.255  0.245  0.732-  12 2.48  11 2.52  13 2.52  14 2.55   9 2.61  15 2.64  16 2.64  10 2.67
                             1 2.77   6 2.92   7 2.92   7 3.04   6 3.04
   6  0.745  0.245  0.732-  12 2.48  11 2.52  13 2.52  14 2.55   9 2.61  15 2.64  16 2.64  10 2.67
                             2 2.77   5 2.92   8 2.92   8 3.04   5 3.04
   7  0.255  0.755  0.732-  12 2.48  11 2.52  13 2.52  14 2.55   9 2.61  15 2.64  16 2.64  10 2.67
                             3 2.77   5 2.92   8 2.92   5 3.04   8 3.04
   8  0.745  0.755  0.732-  12 2.48  11 2.52  13 2.52  14 2.55   9 2.61  15 2.64  16 2.64  10 2.67
                             4 2.77   6 2.92   7 2.92   7 3.04   6 3.04
   9  0.500  0.000  0.000-   1 2.61   2 2.61   3 2.61   4 2.61   5 2.61   6 2.61   7 2.61   8 2.61
                            12 2.98  15 2.98  16 2.98  12 2.98  16 2.98  15 2.98
  10  0.000  0.500  0.000-   1 2.67   2 2.67   3 2.67   4 2.67   5 2.67   6 2.67   7 2.67   8 2.67
                            14 2.98  15 2.98  16 2.98  14 2.98  15 2.98  16 2.98
  11  0.000  0.000  0.500-   1 2.52   2 2.52   3 2.52   4 2.52   5 2.52   6 2.52   7 2.52   8 2.52
                            12 2.98  14 2.98  15 2.98  15 2.98  14 2.98  12 2.98
  12  0.500  0.000  0.500-   1 2.48   2 2.48   3 2.48   4 2.48   5 2.48   6 2.48   7 2.48   8 2.48
                             9 2.98  11 2.98  13 2.98   9 2.98  13 2.98  11 2.98
  13  0.500  0.500  0.500-   1 2.52   2 2.52   3 2.52   4 2.52   5 2.52   6 2.52   7 2.52   8 2.52
                            12 2.98  14 2.98  16 2.98  16 2.98  12 2.98  14 2.98
  14  0.000  0.500  0.500-   1 2.55   2 2.55   3 2.55   4 2.55   5 2.55   6 2.55   7 2.55   8 2.55
                            10 2.98  11 2.98  13 2.98  10 2.98  11 2.98  13 2.98
  15  0.000  0.000  0.000-   1 2.64   2 2.64   3 2.64   4 2.64   5 2.64   6 2.64   7 2.64   8 2.64
                             9 2.98  10 2.98  11 2.98  11 2.98  10 2.98   9 2.98
  16  0.500  0.500  0.000-   1 2.64   2 2.64   3 2.64   4 2.64   5 2.64   6 2.64   7 2.64   8 2.64
                             9 2.98  10 2.98  13 2.98  13 2.98   9 2.98  10 2.98

  LATTYP: Found a simple cubic cell.
 ALAT       =     5.9523079411
  
  Lattice vectors:
  
 A1 = (   5.9523079411,   0.0000000000,   0.0000000000)
 A2 = (   0.0000000000,   5.9523079411,   0.0000000000)
 A3 = (   0.0000000000,   0.0000000000,   5.9523079411)


Analysis of symmetry for initial positions (statically):
=====================================================================
 Subroutine PRICEL returns:
 Original cell was already a primitive cell.
 

 Routine SETGRP: Setting up the symmetry group for a 
 simple cubic supercell.


 Subroutine GETGRP returns: Found 16 space group operations
 (whereof  8 operations were pure point group operations)
 out of a pool of 48 trial point group operations.


The static configuration has the point symmetry D_2h.
 The point group associated with its full space group is D_4h.


Analysis of symmetry for dynamics (positions and initial velocities):
=====================================================================
 Subroutine PRICEL returns:
 Original cell was already a primitive cell.
 

 Routine SETGRP: Setting up the symmetry group for a 
 simple cubic supercell.


 Subroutine GETGRP returns: Found 16 space group operations
 (whereof  8 operations were pure point group operations)
 out of a pool of 48 trial point group operations.


The dynamic configuration has the point symmetry D_2h.
 The point group associated with its full space group is D_4h.


Analysis of structural, dynamic, and magnetic symmetry:
=====================================================================
 Subroutine PRICEL returns:
 Original cell was already a primitive cell.
 

 Routine SETGRP: Setting up the symmetry group for a 
 simple cubic supercell.


 Subroutine GETGRP returns: Found 16 space group operations
 (whereof  8 operations were pure point group operations)
 out of a pool of 48 trial point group operations.


The magnetic configuration has the point symmetry D_2h.
 The point group associated with its full space group is D_4h.


 Subroutine INISYM returns: Found 16 space group operations
 (whereof  8 operations are pure point group operations),
 and found     1 'primitive' translations



 KPOINTS: k-points                                

Automatic generation of k-mesh.
Space group operators:
 irot       det(A)        alpha          n_x          n_y          n_z        tau_x        tau_y        tau_z
    1     1.000000     0.000000     1.000000     0.000000     0.000000     0.000000     0.000000     0.000000
    2    -1.000000     0.000000     1.000000     0.000000     0.000000     0.000000     0.000000     0.000000
    3     1.000000   180.000000     0.000000     0.000000     1.000000     0.000000     0.000000     0.000000
    4    -1.000000   180.000000     0.000000     0.000000     1.000000     0.000000     0.000000     0.000000
    5     1.000000   180.000000     1.000000     0.000000     0.000000     0.000000     0.000000     0.000000
    6    -1.000000   180.000000     1.000000     0.000000     0.000000     0.000000     0.000000     0.000000
    7     1.000000   180.000000     0.000000     1.000000     0.000000     0.000000     0.000000     0.000000
    8    -1.000000   180.000000     0.000000     1.000000     0.000000     0.000000     0.000000     0.000000
    9     1.000000    90.000000     0.000000     0.000000    -1.000000     0.500000     0.500000     0.000000
   10    -1.000000    90.000000     0.000000     0.000000    -1.000000     0.500000     0.500000     0.000000
   11     1.000000    90.000000     0.000000     0.000000     1.000000     0.500000     0.500000     0.000000
   12    -1.000000    90.000000     0.000000     0.000000     1.000000     0.500000     0.500000     0.000000
   13     1.000000   180.000000     0.707107     0.707107     0.000000     0.500000     0.500000     0.000000
   14    -1.000000   180.000000     0.707107     0.707107     0.000000     0.500000     0.500000     0.000000
   15     1.000000   180.000000     0.707107    -0.707107     0.000000     0.500000     0.500000     0.000000
   16    -1.000000   180.000000     0.707107    -0.707107     0.000000     0.500000     0.500000     0.000000
 
 Subroutine IBZKPT returns following result:
 ===========================================
 
 Found     40 irreducible k-points:
 
 Following reciprocal coordinates:
            Coordinates               Weight
  0.000000  0.000000  0.000000      1.000000
  0.142857  0.000000  0.000000      4.000000
  0.285714  0.000000  0.000000      4.000000
  0.428571  0.000000  0.000000      4.000000
  0.142857  0.142857  0.000000      4.000000
  0.285714  0.142857  0.000000      8.000000
  0.428571  0.142857  0.000000      8.000000
  0.285714  0.285714  0.000000      4.000000
  0.428571  0.285714  0.000000      8.000000
  0.428571  0.428571  0.000000      4.000000
  0.000000  0.000000  0.142857      2.000000
  0.142857  0.000000  0.142857      8.000000
  0.285714  0.000000  0.142857      8.000000
  0.428571  0.000000  0.142857      8.000000
  0.142857  0.142857  0.142857      8.000000
  0.285714  0.142857  0.142857     16.000000
  0.428571  0.142857  0.142857     16.000000
  0.285714  0.285714  0.142857      8.000000
  0.428571  0.285714  0.142857     16.000000
  0.428571  0.428571  0.142857      8.000000
  0.000000  0.000000  0.285714      2.000000
  0.142857  0.000000  0.285714      8.000000
  0.285714  0.000000  0.285714      8.000000
  0.428571  0.000000  0.285714      8.000000
  0.142857  0.142857  0.285714      8.000000
  0.285714  0.142857  0.285714     16.000000
  0.428571  0.142857  0.285714     16.000000
  0.285714  0.285714  0.285714      8.000000
  0.428571  0.285714  0.285714     16.000000
  0.428571  0.428571  0.285714      8.000000
  0.000000  0.000000  0.428571      2.000000
  0.142857  0.000000  0.428571      8.000000
  0.285714  0.000000  0.428571      8.000000
  0.428571  0.000000  0.428571      8.000000
  0.142857  0.142857  0.428571      8.000000
  0.285714  0.142857  0.428571     16.000000
  0.428571  0.142857  0.428571     16.000000
  0.285714  0.285714  0.428571      8.000000
  0.428571  0.285714  0.428571     16.000000
  0.428571  0.428571  0.428571      8.000000
 
 Following cartesian coordinates:
            Coordinates               Weight
  0.000000  0.000000  0.000000      1.000000
  0.138242  0.000000  0.000000      4.000000
  0.276483  0.000000  0.000000      4.000000
  0.414725  0.000000  0.000000      4.000000
  0.138242  0.138242  0.000000      4.000000
  0.276483  0.138242  0.000000      8.000000
  0.414725  0.138242  0.000000      8.000000
  0.276483  0.276483  0.000000      4.000000
  0.414725  0.276483  0.000000      8.000000
  0.414725  0.414725  0.000000      4.000000
  0.000000  0.000000  0.138242      2.000000
  0.138242  0.000000  0.138242      8.000000
  0.276483  0.000000  0.138242      8.000000
  0.414725  0.000000  0.138242      8.000000
  0.138242  0.138242  0.138242      8.000000
  0.276483  0.138242  0.138242     16.000000
  0.414725  0.138242  0.138242     16.000000
  0.276483  0.276483  0.138242      8.000000
  0.414725  0.276483  0.138242     16.000000
  0.414725  0.414725  0.138242      8.000000
  0.000000  0.000000  0.276483      2.000000
  0.138242  0.000000  0.276483      8.000000
  0.276483  0.000000  0.276483      8.000000
  0.414725  0.000000  0.276483      8.000000
  0.138242  0.138242  0.276483      8.000000
  0.276483  0.138242  0.276483     16.000000
  0.414725  0.138242  0.276483     16.000000
  0.276483  0.276483  0.276483      8.000000
  0.414725  0.276483  0.276483     16.000000
  0.414725  0.414725  0.276483      8.000000
  0.000000  0.000000  0.414725      2.000000
  0.138242  0.000000  0.414725      8.000000
  0.276483  0.000000  0.414725      8.000000
  0.414725  0.000000  0.414725      8.000000
  0.138242  0.138242  0.414725      8.000000
  0.276483  0.138242  0.414725     16.000000
  0.414725  0.138242  0.414725     16.000000
  0.276483  0.276483  0.414725      8.000000
  0.414725  0.276483  0.414725     16.000000
  0.414725  0.414725  0.414725      8.000000
 


--------------------------------------------------------------------------------------------------------




 Dimension of arrays:
   k-points           NKPTS =     40   k-points in BZ     NKDIM =     40   number of bands    NBANDS=     84
   number of dos      NEDOS =    301   number of ions     NIONS =     16
   non local maximal  LDIM  =      6   non local SUM 2l+1 LMDIM =     18
   total plane-waves  NPLWV =  46656
   max r-space proj   IRMAX =   4061   max aug-charges    IRDMAX=  25154
   dimension x,y,z NGX =    36 NGY =   36 NGZ =   36
   dimension x,y,z NGXF=    72 NGYF=   72 NGZF=   72
   support grid    NGXF=    72 NGYF=   72 NGZF=   72
   ions per type =               8   6   2
   NGX,Y,Z   is equivalent  to a cutoff of  10.05, 10.05, 10.05 a.u.
   NGXF,Y,Z  is equivalent  to a cutoff of  20.11, 20.11, 20.11 a.u.

 SYSTEM =  Testrun for NiMnIn                      
 POSCAR =  Ni2MnIn                                 

 Startparameter for this run:
   NWRITE =      2    write-flag & timer
   PREC   = normal    normal or accurate (medium, high low for compatibility)
   ISTART =      0    job   : 0-new  1-cont  2-samecut
   ICHARG =      2    charge: 1-file 2-atom 10-const
   ISPIN  =      2    spin polarized calculation?
   LNONCOLLINEAR =      F non collinear calculations
   LSORBIT =      F    spin-orbit coupling
   INIWAV =      1    electr: 0-lowe 1-rand  2-diag
   LASPH  =      F    aspherical Exc in radial PAW
   METAGGA=      F    non-selfconsistent MetaGGA calc.

 Electronic Relaxation 1
   ENCUT  =  550.0 eV  40.42 Ry    6.36 a.u.  11.38 11.38 11.38*2*pi/ulx,y,z
   ENINI  =  550.0     initial cutoff
   ENAUG  =  544.6 eV  augmentation charge cutoff
   NELM   =     60;   NELMIN=  2; NELMDL= -5     # of ELM steps 
   EDIFF  = 0.1E-04   stopping-criterion for ELM
   LREAL  =      T    real-space projection
   NLSPLINE    = F    spline interpolate recip. space projectors
   LCOMPAT=      F    compatible to vasp.4.4
   GGA_COMPAT  = T    GGA compatible to vasp.4.4-vasp.4.6
   LMAXPAW     = -100 max onsite density
   LMAXMIX     =    2 max onsite mixed and CHGCAR
   VOSKOWN=      0    Vosko Wilk Nusair interpolation
   ROPT   =   -0.00050  -0.00050  -0.00050
 Ionic relaxation
   EDIFFG = -.1E-01   stopping-criterion for IOM
   NSW    =   1000    number of steps for IOM
   NBLOCK =      1;   KBLOCK =   1000    inner block; outer block 
   IBRION =      2    ionic relax: 0-MD 1-quasi-New 2-CG
   NFREE  =      1    steps in history (QN), initial steepest desc. (CG)
   ISIF   =      2    stress and relaxation
   IWAVPR =     11    prediction:  0-non 1-charg 2-wave 3-comb
   ISYM   =      2    0-nonsym 1-usesym 2-fastsym
   LCORR  =      T    Harris-Foulkes like correction to forces

   POTIM  = 0.5000    time-step for ionic-motion
   TEIN   =    0.0    initial temperature
   TEBEG  =    0.0;   TEEND  =   0.0 temperature during run
   SMASS  =  -3.00    Nose mass-parameter (am)
   estimated Nose-frequenzy (Omega)   =  0.10E-29 period in steps =****** mass=  -0.810E-27a.u.
   SCALEE = 1.0000    scale energy and forces
   NPACO  =    256;   APACO  = 16.0  distance and # of slots for P.C.
   PSTRESS=    0.0 pullay stress

  Mass of Ions in am
   POMASS =  58.69 54.94114.82
  Ionic Valenz
   ZVAL   =  10.00  7.00  3.00
  Atomic Wigner-Seitz radii
   RWIGS  =  -1.00 -1.00 -1.00
  virtual crystal weights 
   VCA    =   1.00  1.00  1.00
   NELECT =     128.0000    total number of electrons
   NUPDOWN=      -1.0000    fix difference up-down

 DOS related values:
   EMIN   =  10.00;   EMAX   =-10.00  energy-range for DOS
   EFERMI =   0.00
   ISMEAR =     0;   SIGMA  =   0.02  broadening in eV -4-tet -1-fermi 0-gaus

 Electronic relaxation 2 (details)
   IALGO  =     68    algorithm
   LDIAG  =      T    sub-space diagonalisation (order eigenvalues)
   LSUBROT=      F    optimize rotation matrix (better conditioning)
   TURBO    =      0    0=normal 1=particle mesh
   IRESTART =      0    0=no restart 2=restart with 2 vectors
   NREBOOT  =      0    no. of reboots
   NMIN     =      0    reboot dimension
   EREF     =   0.00    reference energy to select bands
   IMIX   =      4    mixing-type and parameters
     AMIX     =   0.40;   BMIX     =  1.00
     AMIX_MAG =   1.60;   BMIX_MAG =  1.00
     AMIN     =   0.10
     WC   =   100.;   INIMIX=   1;  MIXPRE=   1;  MAXMIX= -45

 Intra band minimization:
   WEIMIN = 0.0010     energy-eigenvalue tresh-hold
   EBREAK =  0.30E-07  absolut break condition
   DEPER  =   0.30     relativ break condition  

   TIME   =   0.40     timestep for ELM

  volume/ion in A,a.u.               =      13.18        88.95
  Fermi-wavevector in a.u.,A,eV,Ry     =   1.386094  2.619338 26.140292  1.921257
  Thomas-Fermi vector in A             =   2.510442

 Write flags
   LWAVE        =      F    write WAVECAR
   LDOWNSAMPLE  =      F    k-point downsampling of WAVECAR
   LCHARG       =      T    write CHGCAR
   LVTOT        =      F    write LOCPOT, total local potential
   LVHAR        =      F    write LOCPOT, Hartree potential only
   LELF         =      F    write electronic localiz. function (ELF)
   LORBIT       =     11    0 simple, 1 ext, 2 COOP (PROOUT), +10 PAW based schemes


 Dipole corrections
   LMONO  =      F    monopole corrections only (constant potential shift)
   LDIPOL =      F    correct potential (dipole corrections)
   IDIPOL =      0    1-x, 2-y, 3-z, 4-all directions 
   EPSILON=  1.0000000 bulk dielectric constant

 Exchange correlation treatment:
   GGA     =    --    GGA type
   LEXCH   =     8    internal setting for exchange type
   VOSKOWN=      0    Vosko Wilk Nusair interpolation
   LHFCALC =     F    Hartree Fock is set to
   LHFONE  =     F    Hartree Fock one center treatment
   AEXX    =    0.0000 exact exchange contribution

 Linear response parameters
   LEPSILON=     F    determine dielectric tensor
   LRPA    =     F    only Hartree local field effects (RPA)
   LNABLA  =     F    use nabla operator in PAW spheres
   LVEL    =     F    velocity operator in full k-point grid
   LINTERFAST=   F  fast interpolation
   KINTER  =     0    interpolate to denser k-point grid
   CSHIFT  =0.1000    complex shift for real part using Kramers Kronig
   OMEGAMAX=  -1.0    maximum frequency
   DEG_THRESHOLD= 0.2000000E-02 threshold for treating states as degnerate
   RTIME   =   -0.100 relaxation time in fs
  (WPLASMAI=    0.000 imaginary part of plasma frequency in eV, 0.658/RTIME)
   DFIELD  = 0.0000000 0.0000000 0.0000000 field for delta impulse in time

 Orbital magnetization related:
   ORBITALMAG=     F  switch on orbital magnetization
   LCHIMAG   =     F  perturbation theory with respect to B field
   DQ        =  0.001000  dq finite difference perturbation B field
   LLRAUG    =     F  two centre corrections for induced B field



--------------------------------------------------------------------------------------------------------


 conjugate gradient relaxation of ions
 charge density and potential will be updated during run
 spin polarized calculation
 RMM-DIIS sequential band-by-band and
  variant of blocked Davidson during initial phase
 perform sub-space diagonalisation
    before iterative eigenvector-optimisation
 modified Broyden-mixing scheme, WC =      100.0
 initial mixing is a Kerker type mixing with AMIX =  0.4000 and BMIX =      1.0000
 Hartree-type preconditioning will be used
 using additional bands           20
 real space projection scheme for non local part
 use partial core corrections
 calculate Harris-corrections to forces   (improved forces if not selfconsistent)
 use gradient corrections 
 use of overlap-Matrix (Vanderbilt PP)
 Gauss-broadening in eV      SIGMA  =   0.02


--------------------------------------------------------------------------------------------------------


  energy-cutoff  :      550.00
  volume of cell :      210.89
      direct lattice vectors                 reciprocal lattice vectors
     5.952307941  0.000000000  0.000000000     0.168002061  0.000000000  0.000000000
     0.000000000  5.952307941  0.000000000     0.000000000  0.168002061  0.000000000
     0.000000000  0.000000000  5.952307941     0.000000000  0.000000000  0.168002061

  length of vectors
     5.952307941  5.952307941  5.952307941     0.168002061  0.168002061  0.168002061



 k-points in units of 2pi/SCALE and weight: k-points                                
   0.00000000  0.00000000  0.00000000       0.003
   0.13824170  0.00000000  0.00000000       0.012
   0.27648339  0.00000000  0.00000000       0.012
   0.41472509  0.00000000  0.00000000       0.012
   0.13824170  0.13824170  0.00000000       0.012
   0.27648339  0.13824170  0.00000000       0.023
   0.41472509  0.13824170  0.00000000       0.023
   0.27648339  0.27648339  0.00000000       0.012
   0.41472509  0.27648339  0.00000000       0.023
   0.41472509  0.41472509  0.00000000       0.012
   0.00000000  0.00000000  0.13824170       0.006
   0.13824170  0.00000000  0.13824170       0.023
   0.27648339  0.00000000  0.13824170       0.023
   0.41472509  0.00000000  0.13824170       0.023
   0.13824170  0.13824170  0.13824170       0.023
   0.27648339  0.13824170  0.13824170       0.047
   0.41472509  0.13824170  0.13824170       0.047
   0.27648339  0.27648339  0.13824170       0.023
   0.41472509  0.27648339  0.13824170       0.047
   0.41472509  0.41472509  0.13824170       0.023
   0.00000000  0.00000000  0.27648339       0.006
   0.13824170  0.00000000  0.27648339       0.023
   0.27648339  0.00000000  0.27648339       0.023
   0.41472509  0.00000000  0.27648339       0.023
   0.13824170  0.13824170  0.27648339       0.023
   0.27648339  0.13824170  0.27648339       0.047
   0.41472509  0.13824170  0.27648339       0.047
   0.27648339  0.27648339  0.27648339       0.023
   0.41472509  0.27648339  0.27648339       0.047
   0.41472509  0.41472509  0.27648339       0.023
   0.00000000  0.00000000  0.41472509       0.006
   0.13824170  0.00000000  0.41472509       0.023
   0.27648339  0.00000000  0.41472509       0.023
   0.41472509  0.00000000  0.41472509       0.023
   0.13824170  0.13824170  0.41472509       0.023
   0.27648339  0.13824170  0.41472509       0.047
   0.41472509  0.13824170  0.41472509       0.047
   0.27648339  0.27648339  0.41472509       0.023
   0.41472509  0.27648339  0.41472509       0.047
   0.41472509  0.41472509  0.41472509       0.023

 k-points in reciprocal lattice and weights: k-points                                
   0.00000000  0.00000000  0.00000000       0.003
   0.14285714  0.00000000  0.00000000       0.012
   0.28571429  0.00000000  0.00000000       0.012
   0.42857143  0.00000000  0.00000000       0.012
   0.14285714  0.14285714  0.00000000       0.012
   0.28571429  0.14285714  0.00000000       0.023
   0.42857143  0.14285714  0.00000000       0.023
   0.28571429  0.28571429  0.00000000       0.012
   0.42857143  0.28571429  0.00000000       0.023
   0.42857143  0.42857143  0.00000000       0.012
   0.00000000  0.00000000  0.14285714       0.006
   0.14285714  0.00000000  0.14285714       0.023
   0.28571429  0.00000000  0.14285714       0.023
   0.42857143  0.00000000  0.14285714       0.023
   0.14285714  0.14285714  0.14285714       0.023
   0.28571429  0.14285714  0.14285714       0.047
   0.42857143  0.14285714  0.14285714       0.047
   0.28571429  0.28571429  0.14285714       0.023
   0.42857143  0.28571429  0.14285714       0.047
   0.42857143  0.42857143  0.14285714       0.023
   0.00000000  0.00000000  0.28571429       0.006
   0.14285714  0.00000000  0.28571429       0.023
   0.28571429  0.00000000  0.28571429       0.023
   0.42857143  0.00000000  0.28571429       0.023
   0.14285714  0.14285714  0.28571429       0.023
   0.28571429  0.14285714  0.28571429       0.047
   0.42857143  0.14285714  0.28571429       0.047
   0.28571429  0.28571429  0.28571429       0.023
   0.42857143  0.28571429  0.28571429       0.047
   0.42857143  0.42857143  0.28571429       0.023
   0.00000000  0.00000000  0.42857143       0.006
   0.14285714  0.00000000  0.42857143       0.023
   0.28571429  0.00000000  0.42857143       0.023
   0.42857143  0.00000000  0.42857143       0.023
   0.14285714  0.14285714  0.42857143       0.023
   0.28571429  0.14285714  0.42857143       0.047
   0.42857143  0.14285714  0.42857143       0.047
   0.28571429  0.28571429  0.42857143       0.023
   0.42857143  0.28571429  0.42857143       0.047
   0.42857143  0.42857143  0.42857143       0.023

 position of ions in fractional coordinates (direct lattice) 
   0.25508329  0.24491671  0.26764352
   0.74491671  0.24491671  0.26764352
   0.25508329  0.75508329  0.26764352
   0.74491671  0.75508329  0.26764352
   0.25508329  0.24491671  0.73235648
   0.74491671  0.24491671  0.73235648
   0.25508329  0.75508329  0.73235648
   0.74491671  0.75508329  0.73235648
   0.50000000  0.00000000  0.00000000
   0.00000000  0.50000000  0.00000000
   0.00000000  0.00000000  0.50000000
   0.50000000  0.00000000  0.50000000
   0.50000000  0.50000000  0.50000000
   0.00000000  0.50000000  0.50000000
   0.00000000  0.00000000  0.00000000
   0.50000000  0.50000000  0.00000000

 position of ions in cartesian coordinates  (Angst):
   1.51833427  1.45781970  1.59309667
   4.43397368  1.45781970  1.59309667
   1.51833427  4.49448824  1.59309667
   4.43397368  4.49448824  1.59309667
   1.51833427  1.45781970  4.35921128
   4.43397368  1.45781970  4.35921128
   1.51833427  4.49448824  4.35921128
   4.43397368  4.49448824  4.35921128
   2.97615397  0.00000000  0.00000000
   0.00000000  2.97615397  0.00000000
   0.00000000  0.00000000  2.97615397
   2.97615397  0.00000000  2.97615397
   2.97615397  2.97615397  2.97615397
   0.00000000  2.97615397  2.97615397
   0.00000000  0.00000000  0.00000000
   2.97615397  2.97615397  0.00000000



--------------------------------------------------------------------------------------------------------


 k-point  1 :   0.0000 0.0000 0.0000  plane waves:    6187
 k-point  2 :   0.1429 0.0000 0.0000  plane waves:    6163
 k-point  3 :   0.2857 0.0000 0.0000  plane waves:    6167
 k-point  4 :   0.4286 0.0000 0.0000  plane waves:    6190
 k-point  5 :   0.1429 0.1429 0.0000  plane waves:    6194
 k-point  6 :   0.2857 0.1429 0.0000  plane waves:    6184
 k-point  7 :   0.4286 0.1429 0.0000  plane waves:    6198
 k-point  8 :   0.2857 0.2857 0.0000  plane waves:    6166
 k-point  9 :   0.4286 0.2857 0.0000  plane waves:    6179
 k-point 10 :   0.4286 0.4286 0.0000  plane waves:    6174
 k-point 11 :   0.0000 0.0000 0.1429  plane waves:    6163
 k-point 12 :   0.1429 0.0000 0.1429  plane waves:    6194
 k-point 13 :   0.2857 0.0000 0.1429  plane waves:    6184
 k-point 14 :   0.4286 0.0000 0.1429  plane waves:    6198
 k-point 15 :   0.1429 0.1429 0.1429  plane waves:    6193
 k-point 16 :   0.2857 0.1429 0.1429  plane waves:    6186
 k-point 17 :   0.4286 0.1429 0.1429  plane waves:    6176
 k-point 18 :   0.2857 0.2857 0.1429  plane waves:    6179
 k-point 19 :   0.4286 0.2857 0.1429  plane waves:    6169
 k-point 20 :   0.4286 0.4286 0.1429  plane waves:    6175
 k-point 21 :   0.0000 0.0000 0.2857  plane waves:    6167
 k-point 22 :   0.1429 0.0000 0.2857  plane waves:    6184
 k-point 23 :   0.2857 0.0000 0.2857  plane waves:    6166
 k-point 24 :   0.4286 0.0000 0.2857  plane waves:    6179
 k-point 25 :   0.1429 0.1429 0.2857  plane waves:    6186
 k-point 26 :   0.2857 0.1429 0.2857  plane waves:    6179
 k-point 27 :   0.4286 0.1429 0.2857  plane waves:    6169
 k-point 28 :   0.2857 0.2857 0.2857  plane waves:    6181
 k-point 29 :   0.4286 0.2857 0.2857  plane waves:    6194
 k-point 30 :   0.4286 0.4286 0.2857  plane waves:    6144
 k-point 31 :   0.0000 0.0000 0.4286  plane waves:    6190
 k-point 32 :   0.1429 0.0000 0.4286  plane waves:    6198
 k-point 33 :   0.2857 0.0000 0.4286  plane waves:    6179
 k-point 34 :   0.4286 0.0000 0.4286  plane waves:    6174
 k-point 35 :   0.1429 0.1429 0.4286  plane waves:    6176
 k-point 36 :   0.2857 0.1429 0.4286  plane waves:    6169
 k-point 37 :   0.4286 0.1429 0.4286  plane waves:    6175
 k-point 38 :   0.2857 0.2857 0.4286  plane waves:    6194
 k-point 39 :   0.4286 0.2857 0.4286  plane waves:    6144
 k-point 40 :   0.4286 0.4286 0.4286  plane waves:    6137

 maximum and minimum number of plane-waves per node :      6198     6137

 maximum number of plane-waves:      6198
 maximum index in each direction: 
   IXMAX=   11   IYMAX=   11   IZMAX=   11
   IXMIN=  -11   IYMIN=  -11   IZMIN=  -11


 serial   3D FFT for wavefunctions
 parallel 3D FFT for charge:
    minimum data exchange during FFTs selected (reduces bandwidth)


 total amount of memory used by VASP MPI-rank0   103328. kBytes
=======================================================================

   base      :      30000. kBytes
   nonlr-proj:       6821. kBytes
   fftplans  :       1269. kBytes
   grid      :       6573. kBytes
   one-center:        497. kBytes
   wavefun   :      58168. kBytes

     INWAV:  cpu time    0.0000: real time    0.0000
 Broyden mixing: mesh for mixing (old mesh)
   NGX = 23   NGY = 23   NGZ = 23
  (NGX  = 72   NGY  = 72   NGZ  = 72)
  gives a total of  12167 points

 initial charge density was supplied:
 charge density of overlapping atoms calculated
 number of electron     128.0000000 magnetization       8.8000000
 keeping initial charge density in first step


--------------------------------------------------------------------------------------------------------


 Maximum index for non-local projection operator         3887
 Maximum index for augmentation-charges         2127 (set IRDMAX)


--------------------------------------------------------------------------------------------------------


 First call to EWALD:  gamma=   0.298
 Maximum number of real-space cells 3x 3x 3
 Maximum number of reciprocal cells 3x 3x 3

    FEWALD:  cpu time    0.0021: real time    0.0021


--------------------------------------- Iteration      1(   1)  ---------------------------------------


    POTLOK:  cpu time    0.0983: real time    0.1041
    SETDIJ:  cpu time    0.0356: real time    0.0357
     EDDAV:  cpu time   23.3756: real time   23.4042
       DOS:  cpu time    0.0036: real time    0.0036
    --------------------------------------------
      LOOP:  cpu time   23.5132: real time   23.5476

 eigenvalue-minimisations  : 13440
 total energy-change (2. order) : 0.1069349E+04  (-0.5418881E+04)
 number of electron     128.0000000 magnetization       8.8000000
 augmentation part      128.0000000 magnetization       8.8000000

 Free energy of the ion-electron system (eV)
  ---------------------------------------------------
  alpha Z        PSCENC =       533.56972965
  Ewald energy   TEWEN  =     -9297.05234846
  -Hartree energ DENC   =     -3136.05553764
  -exchange      EXHF   =         0.00000000
  -V(xc)+E(xc)   XCENC  =        78.33711174
  PAW double counting   =     10320.96726947   -10647.99417394
  entropy T*S    EENTRO =        -0.00195757
  eigenvalues    EBANDS =      1988.11664492
  atomic energy  EATOM  =     11229.46195210
  Solvation  Ediel_sol  =         0.00000000
  ---------------------------------------------------
  free energy    TOTEN  =      1069.34869027 eV

  energy without entropy =     1069.35064784  energy(sigma->0) =     1069.34966906


--------------------------------------------------------------------------------------------------------




--------------------------------------- Iteration      1(   2)  ---------------------------------------


     EDDAV:  cpu time   24.2731: real time   24.2993
       DOS:  cpu time    0.0037: real time    0.0037
    --------------------------------------------
      LOOP:  cpu time   24.2768: real time   24.3030

 eigenvalue-minimisations  : 13440
 total energy-change (2. order) :-0.1067669E+04  (-0.1034264E+04)
 number of electron     128.0000000 magnetization       8.8000000
 augmentation part      128.0000000 magnetization       8.8000000

 Free energy of the ion-electron system (eV)
  ---------------------------------------------------
  alpha Z        PSCENC =       533.56972965
  Ewald energy   TEWEN  =     -9297.05234846
  -Hartree energ DENC   =     -3136.05553764
  -exchange      EXHF   =         0.00000000
  -V(xc)+E(xc)   XCENC  =        78.33711174
  PAW double counting   =     10320.96726947   -10647.99417394
  entropy T*S    EENTRO =        -0.00217709
  eigenvalues    EBANDS =       920.44746295
  atomic energy  EATOM  =     11229.46195210
  Solvation  Ediel_sol  =         0.00000000
  ---------------------------------------------------
  free energy    TOTEN  =         1.67928878 eV

  energy without entropy =        1.68146587  energy(sigma->0) =        1.68037732


--------------------------------------------------------------------------------------------------------




--------------------------------------- Iteration      1(   3)  ---------------------------------------


     EDDAV:  cpu time   25.6916: real time   25.7399
       DOS:  cpu time    0.0038: real time    0.0038
    --------------------------------------------
      LOOP:  cpu time   25.6954: real time   25.7437

 eigenvalue-minimisations  : 15120
 total energy-change (2. order) :-0.1120898E+03  (-0.1004234E+03)
 number of electron     128.0000000 magnetization       8.8000000
 augmentation part      128.0000000 magnetization       8.8000000

 Free energy of the ion-electron system (eV)
  ---------------------------------------------------
  alpha Z        PSCENC =       533.56972965
  Ewald energy   TEWEN  =     -9297.05234846
  -Hartree energ DENC   =     -3136.05553764
  -exchange      EXHF   =         0.00000000
  -V(xc)+E(xc)   XCENC  =        78.33711174
  PAW double counting   =     10320.96726947   -10647.99417394
  entropy T*S    EENTRO =        -0.00305296
  eigenvalues    EBANDS =       808.35855979
  atomic energy  EATOM  =     11229.46195210
  Solvation  Ediel_sol  =         0.00000000
  ---------------------------------------------------
  free energy    TOTEN  =      -110.41049025 eV

  energy without entropy =     -110.40743729  energy(sigma->0) =     -110.40896377


--------------------------------------------------------------------------------------------------------




--------------------------------------- Iteration      1(   4)  ---------------------------------------


     EDDAV:  cpu time   32.1417: real time   32.1724
       DOS:  cpu time    0.0037: real time    0.0037
    --------------------------------------------
      LOOP:  cpu time   32.1453: real time   32.1761

 eigenvalue-minimisations  : 19812
 total energy-change (2. order) :-0.6803294E+01  (-0.6443233E+01)
 number of electron     128.0000000 magnetization       8.8000000
 augmentation part      128.0000000 magnetization       8.8000000

 Free energy of the ion-electron system (eV)
  ---------------------------------------------------
  alpha Z        PSCENC =       533.56972965
  Ewald energy   TEWEN  =     -9297.05234846
  -Hartree energ DENC   =     -3136.05553764
  -exchange      EXHF   =         0.00000000
  -V(xc)+E(xc)   XCENC  =        78.33711174
  PAW double counting   =     10320.96726947   -10647.99417394
  entropy T*S    EENTRO =        -0.00293289
  eigenvalues    EBANDS =       801.55514581
  atomic energy  EATOM  =     11229.46195210
  Solvation  Ediel_sol  =         0.00000000
  ---------------------------------------------------
  free energy    TOTEN  =      -117.21378416 eV

  energy without entropy =     -117.21085127  energy(sigma->0) =     -117.21231771


--------------------------------------------------------------------------------------------------------




--------------------------------------- Iteration      1(   5)  ---------------------------------------


     EDDAV:  cpu time   31.9634: real time   31.9921
       DOS:  cpu time    0.0037: real time    0.0037
    CHARGE:  cpu time    0.6852: real time    0.6857
    MIXING:  cpu time    0.0016: real time    0.0016
    --------------------------------------------
      LOOP:  cpu time   32.6539: real time   32.6832

 eigenvalue-minimisations  : 19692
 total energy-change (2. order) :-0.2391038E+00  (-0.2377573E+00)
 number of electron     128.0000308 magnetization       7.5234015
 augmentation part       60.6135362 magnetization       4.9165856

 Broyden mixing:
  rms(total) = 0.34525E+01    rms(broyden)= 0.34524E+01
  rms(prec ) = 0.53429E+01
  weight for this iteration     100.00

 Free energy of the ion-electron system (eV)
  ---------------------------------------------------
  alpha Z        PSCENC =       533.56972965
  Ewald energy   TEWEN  =     -9297.05234846
  -Hartree energ DENC   =     -3136.05553764
  -exchange      EXHF   =         0.00000000
  -V(xc)+E(xc)   XCENC  =        78.33711174
  PAW double counting   =     10320.96726947   -10647.99417394
  entropy T*S    EENTRO =        -0.00305541
  eigenvalues    EBANDS =       801.31616456
  atomic energy  EATOM  =     11229.46195210
  Solvation  Ediel_sol  =         0.00000000
  ---------------------------------------------------
  free energy    TOTEN  =      -117.45288792 eV

  energy without entropy =     -117.44983251  energy(sigma->0) =     -117.45136022


--------------------------------------------------------------------------------------------------------




--------------------------------------- Iteration      1(   6)  ---------------------------------------


    POTLOK:  cpu time    0.0967: real time    0.0974
    SETDIJ:  cpu time    0.0360: real time    0.0360
    EDDIAG:  cpu time    3.2530: real time    3.2559
  RMM-DIIS:  cpu time   10.6244: real time   10.6331
    ORTHCH:  cpu time    0.6309: real time    0.6314
       DOS:  cpu time    0.0037: real time    0.0037
    CHARGE:  cpu time    0.7041: real time    0.7045
    MIXING:  cpu time    0.0016: real time    0.0016
    --------------------------------------------
      LOOP:  cpu time   15.3504: real time   15.3637

 eigenvalue-minimisations  : 13440
 total energy-change (2. order) : 0.6789829E+01  (-0.1703433E+02)
 number of electron     128.0000322 magnetization       8.2682990
 augmentation part       69.6070736 magnetization       5.7421957

 Broyden mixing:
  rms(total) = 0.47753E+01    rms(broyden)= 0.47752E+01
  rms(prec ) = 0.64811E+01
  weight for this iteration     100.00

 eigenvalues of (default mixing * dielectric matrix)
  average eigenvalue GAMMA=   0.2181
  0.2181

 Free energy of the ion-electron system (eV)
  ---------------------------------------------------
  alpha Z        PSCENC =       533.56972965
  Ewald energy   TEWEN  =     -9297.05234846
  -Hartree energ DENC   =     -2902.97645073
  -exchange      EXHF   =         0.00000000
  -V(xc)+E(xc)   XCENC  =        66.59275978
  PAW double counting   =     11137.42788492   -11430.73253987
  entropy T*S    EENTRO =        -0.00566347
  eigenvalues    EBANDS =       553.05161697
  atomic energy  EATOM  =     11229.46195210
  Solvation  Ediel_sol  =         0.00000000
  ---------------------------------------------------
  free energy    TOTEN  =      -110.66305909 eV

  energy without entropy =     -110.65739563  energy(sigma->0) =     -110.66022736


--------------------------------------------------------------------------------------------------------




--------------------------------------- Iteration      1(   7)  ---------------------------------------


    POTLOK:  cpu time    0.0967: real time    0.0969
    SETDIJ:  cpu time    0.0360: real time    0.0360
    EDDIAG:  cpu time    3.2626: real time    3.2654
  RMM-DIIS:  cpu time   10.6130: real time   10.6214
    ORTHCH:  cpu time    0.6309: real time    0.6314
       DOS:  cpu time    0.0037: real time    0.0037
    CHARGE:  cpu time    0.6979: real time    0.6984
    MIXING:  cpu time    0.0017: real time    0.0017
    --------------------------------------------
      LOOP:  cpu time   15.3424: real time   15.3548

 eigenvalue-minimisations  : 13460
 total energy-change (2. order) :-0.6176858E+00  (-0.2833262E+01)
 number of electron     128.0000343 magnetization       8.5566072
 augmentation part       70.3915017 magnetization       6.5660944

 Broyden mixing:
  rms(total) = 0.34637E+01    rms(broyden)= 0.34635E+01
  rms(prec ) = 0.61998E+01
  weight for this iteration     100.00

 eigenvalues of (default mixing * dielectric matrix)
  average eigenvalue GAMMA=   0.4223
  0.4223  0.4223

 Free energy of the ion-electron system (eV)
  ---------------------------------------------------
  alpha Z        PSCENC =       533.56972965
  Ewald energy   TEWEN  =     -9297.05234846
  -Hartree energ DENC   =     -2888.56354360
  -exchange      EXHF   =         0.00000000
  -V(xc)+E(xc)   XCENC  =        67.00173363
  PAW double counting   =     11416.40817459   -11714.86319826
  entropy T*S    EENTRO =        -0.00233634
  eigenvalues    EBANDS =       542.75909179
  atomic energy  EATOM  =     11229.46195210
  Solvation  Ediel_sol  =         0.00000000
  ---------------------------------------------------
  free energy    TOTEN  =      -111.28074490 eV

  energy without entropy =     -111.27840856  energy(sigma->0) =     -111.27957673


--------------------------------------------------------------------------------------------------------




--------------------------------------- Iteration      1(   8)  ---------------------------------------


    POTLOK:  cpu time    0.0989: real time    0.0989
    SETDIJ:  cpu time    0.0358: real time    0.0358
    EDDIAG:  cpu time    3.2830: real time    3.2860
  RMM-DIIS:  cpu time   10.5125: real time   10.5210
    ORTHCH:  cpu time    0.6336: real time    0.6340
       DOS:  cpu time    0.0038: real time    0.0038
    CHARGE:  cpu time    0.6888: real time    0.6893
    MIXING:  cpu time    0.0018: real time    0.0018
    --------------------------------------------
      LOOP:  cpu time   15.2582: real time   15.2707

 eigenvalue-minimisations  : 13445
 total energy-change (2. order) : 0.5231197E+01  (-0.2339264E+01)
 number of electron     128.0000328 magnetization       9.2148711
 augmentation part       68.0890550 magnetization       5.9906891

 Broyden mixing:
  rms(total) = 0.26518E+01    rms(broyden)= 0.26517E+01
  rms(prec ) = 0.50088E+01
  weight for this iteration     100.00

 eigenvalues of (default mixing * dielectric matrix)
  average eigenvalue GAMMA=   0.4248
  0.5531  0.5531  0.1681

 Free energy of the ion-electron system (eV)
  ---------------------------------------------------
  alpha Z        PSCENC =       533.56972965
  Ewald energy   TEWEN  =     -9297.05234846
  -Hartree energ DENC   =     -2945.66436713
  -exchange      EXHF   =         0.00000000
  -V(xc)+E(xc)   XCENC  =        71.02328033
  PAW double counting   =     11798.63703326   -12122.04906784
  entropy T*S    EENTRO =        -0.00281620
  eigenvalues    EBANDS =       626.02705601
  atomic energy  EATOM  =     11229.46195210
  Solvation  Ediel_sol  =         0.00000000
  ---------------------------------------------------
  free energy    TOTEN  =      -106.04954828 eV

  energy without entropy =     -106.04673209  energy(sigma->0) =     -106.04814018


--------------------------------------------------------------------------------------------------------




--------------------------------------- Iteration      1(   9)  ---------------------------------------


    POTLOK:  cpu time    0.0968: real time    0.0969
    SETDIJ:  cpu time    0.0362: real time    0.0363
    EDDIAG:  cpu time    3.3024: real time    3.3053
  RMM-DIIS:  cpu time   10.6153: real time   10.6237
    ORTHCH:  cpu time    0.6334: real time    0.6340
       DOS:  cpu time    0.0036: real time    0.0036
    CHARGE:  cpu time    0.7091: real time    0.7096
    MIXING:  cpu time    0.0021: real time    0.0021
    --------------------------------------------
      LOOP:  cpu time   15.3989: real time   15.4115

 eigenvalue-minimisations  : 13558
 total energy-change (2. order) : 0.1742404E+01  (-0.5455944E+00)
 number of electron     128.0000324 magnetization       9.5889907
 augmentation part       66.8777773 magnetization       7.8135548

 Broyden mixing:
  rms(total) = 0.17866E+01    rms(broyden)= 0.17866E+01
  rms(prec ) = 0.32115E+01
  weight for this iteration     100.00

 eigenvalues of (default mixing * dielectric matrix)
  average eigenvalue GAMMA=   0.4867
  1.0124  0.5048  0.2875  0.1422

 Free energy of the ion-electron system (eV)
  ---------------------------------------------------
  alpha Z        PSCENC =       533.56972965
  Ewald energy   TEWEN  =     -9297.05234846
  -Hartree energ DENC   =     -2957.58728819
  -exchange      EXHF   =         0.00000000
  -V(xc)+E(xc)   XCENC  =        71.87828934
  PAW double counting   =     11991.74411538   -12322.69286058
  entropy T*S    EENTRO =        -0.00294109
  eigenvalues    EBANDS =       646.37420775
  atomic energy  EATOM  =     11229.46195210
  Solvation  Ediel_sol  =         0.00000000
  ---------------------------------------------------
  free energy    TOTEN  =      -104.30714409 eV

  energy without entropy =     -104.30420300  energy(sigma->0) =     -104.30567355


--------------------------------------------------------------------------------------------------------




--------------------------------------- Iteration      1(  10)  ---------------------------------------


    POTLOK:  cpu time    0.0968: real time    0.0974
    SETDIJ:  cpu time    0.0361: real time    0.0362
    EDDIAG:  cpu time    3.2954: real time    3.2983
  RMM-DIIS:  cpu time   10.6500: real time   10.6585
    ORTHCH:  cpu time    0.6327: real time    0.6332
       DOS:  cpu time    0.0037: real time    0.0037
    CHARGE:  cpu time    0.7018: real time    0.7023
    MIXING:  cpu time    0.0020: real time    0.0020
    --------------------------------------------
      LOOP:  cpu time   15.4184: real time   15.4315

 eigenvalue-minimisations  : 13445
 total energy-change (2. order) : 0.1209134E+01  (-0.2102236E+00)
 number of electron     128.0000331 magnetization       9.5538311
 augmentation part       67.5337879 magnetization       7.2788018

 Broyden mixing:
  rms(total) = 0.10297E+01    rms(broyden)= 0.10297E+01
  rms(prec ) = 0.14335E+01
  weight for this iteration     100.00

 eigenvalues of (default mixing * dielectric matrix)
  average eigenvalue GAMMA=   0.4740
  1.1112  0.4664  0.4664  0.1839  0.1421

 Free energy of the ion-electron system (eV)
  ---------------------------------------------------
  alpha Z        PSCENC =       533.56972965
  Ewald energy   TEWEN  =     -9297.05234846
  -Hartree energ DENC   =     -2942.50673125
  -exchange      EXHF   =         0.00000000
  -V(xc)+E(xc)   XCENC  =        71.61087866
  PAW double counting   =     12253.06577557   -12586.71012849
  entropy T*S    EENTRO =        -0.00116534
  eigenvalues    EBANDS =       635.46402756
  atomic energy  EATOM  =     11229.46195210
  Solvation  Ediel_sol  =         0.00000000
  ---------------------------------------------------
  free energy    TOTEN  =      -103.09800999 eV

  energy without entropy =     -103.09684465  energy(sigma->0) =     -103.09742732


--------------------------------------------------------------------------------------------------------




--------------------------------------- Iteration      1(  11)  ---------------------------------------


    POTLOK:  cpu time    0.1010: real time    0.1011
    SETDIJ:  cpu time    0.0360: real time    0.0360
    EDDIAG:  cpu time    3.3089: real time    3.3117
  RMM-DIIS:  cpu time   10.5952: real time   10.6036
    ORTHCH:  cpu time    0.6360: real time    0.6365
       DOS:  cpu time    0.0038: real time    0.0038
    CHARGE:  cpu time    0.6899: real time    0.6904
    MIXING:  cpu time    0.0020: real time    0.0020
    --------------------------------------------
      LOOP:  cpu time   15.3728: real time   15.3851

 eigenvalue-minimisations  : 13489
 total energy-change (2. order) :-0.6207525E-02  (-0.4197951E-01)
 number of electron     128.0000329 magnetization       9.4733427
 augmentation part       67.7088938 magnetization       7.2079450

 Broyden mixing:
  rms(total) = 0.67369E+00    rms(broyden)= 0.67369E+00
  rms(prec ) = 0.87639E+00
  weight for this iteration     100.00

 eigenvalues of (default mixing * dielectric matrix)
  average eigenvalue GAMMA=   0.4715
  1.0919  0.4781  0.4781  0.4317  0.2130  0.1360

 Free energy of the ion-electron system (eV)
  ---------------------------------------------------
  alpha Z        PSCENC =       533.56972965
  Ewald energy   TEWEN  =     -9297.05234846
  -Hartree energ DENC   =     -2937.19819232
  -exchange      EXHF   =         0.00000000
  -V(xc)+E(xc)   XCENC  =        72.50471497
  PAW double counting   =     12437.46748437   -12773.83339859
  entropy T*S    EENTRO =        -0.00098665
  eigenvalues    EBANDS =       631.97682741
  atomic energy  EATOM  =     11229.46195210
  Solvation  Ediel_sol  =         0.00000000
  ---------------------------------------------------
  free energy    TOTEN  =      -103.10421752 eV

  energy without entropy =     -103.10323087  energy(sigma->0) =     -103.10372419


--------------------------------------------------------------------------------------------------------




--------------------------------------- Iteration      1(  12)  ---------------------------------------


    POTLOK:  cpu time    0.0969: real time    0.0969
    SETDIJ:  cpu time    0.0360: real time    0.0360
    EDDIAG:  cpu time    3.3147: real time    3.3176
  RMM-DIIS:  cpu time   10.6640: real time   10.6724
    ORTHCH:  cpu time    0.6372: real time    0.6378
       DOS:  cpu time    0.0038: real time    0.0038
    CHARGE:  cpu time    0.6976: real time    0.6980
    MIXING:  cpu time    0.0022: real time    0.0022
    --------------------------------------------
      LOOP:  cpu time   15.4523: real time   15.4647

 eigenvalue-minimisations  : 13488
 total energy-change (2. order) :-0.7139020E-01  (-0.2428850E-01)
 number of electron     128.0000328 magnetization       9.3342497
 augmentation part       67.5149911 magnetization       7.1159996

 Broyden mixing:
  rms(total) = 0.51498E+00    rms(broyden)= 0.51497E+00
  rms(prec ) = 0.62587E+00
  weight for this iteration     100.00

 eigenvalues of (default mixing * dielectric matrix)
  average eigenvalue GAMMA=   0.6617
  1.8114  0.7942  0.7942  0.6227  0.1366  0.2098  0.2633

 Free energy of the ion-electron system (eV)
  ---------------------------------------------------
  alpha Z        PSCENC =       533.56972965
  Ewald energy   TEWEN  =     -9297.05234846
  -Hartree energ DENC   =     -2938.97186295
  -exchange      EXHF   =         0.00000000
  -V(xc)+E(xc)   XCENC  =        73.43662302
  PAW double counting   =     12532.11902177   -12871.09138242
  entropy T*S    EENTRO =        -0.00140440
  eigenvalues    EBANDS =       635.35406396
  atomic energy  EATOM  =     11229.46195210
  Solvation  Ediel_sol  =         0.00000000
  ---------------------------------------------------
  free energy    TOTEN  =      -103.17560772 eV

  energy without entropy =     -103.17420332  energy(sigma->0) =     -103.17490552


--------------------------------------------------------------------------------------------------------




--------------------------------------- Iteration      1(  13)  ---------------------------------------


    POTLOK:  cpu time    0.0967: real time    0.0968
    SETDIJ:  cpu time    0.0359: real time    0.0360
    EDDIAG:  cpu time    3.3274: real time    3.3302
  RMM-DIIS:  cpu time   11.1080: real time   11.1169
    ORTHCH:  cpu time    0.6342: real time    0.6348
       DOS:  cpu time    0.0035: real time    0.0036
    CHARGE:  cpu time    0.7007: real time    0.7011
    MIXING:  cpu time    0.0023: real time    0.0023
    --------------------------------------------
      LOOP:  cpu time   15.9087: real time   15.9216

 eigenvalue-minimisations  : 13997
 total energy-change (2. order) :-0.1546873E+00  (-0.3343323E-01)
 number of electron     128.0000327 magnetization       9.2845880
 augmentation part       67.7362015 magnetization       7.0222763

 Broyden mixing:
  rms(total) = 0.25877E+00    rms(broyden)= 0.25876E+00
  rms(prec ) = 0.38269E+00
  weight for this iteration     100.00

 eigenvalues of (default mixing * dielectric matrix)
  average eigenvalue GAMMA=   0.6841
  2.1361  0.8374  0.8374  0.5336  0.5336  0.1367  0.2107  0.2471

 Free energy of the ion-electron system (eV)
  ---------------------------------------------------
  alpha Z        PSCENC =       533.56972965
  Ewald energy   TEWEN  =     -9297.05234846
  -Hartree energ DENC   =     -2932.26902741
  -exchange      EXHF   =         0.00000000
  -V(xc)+E(xc)   XCENC  =        75.37837924
  PAW double counting   =     12815.23290965   -13158.45194193
  entropy T*S    EENTRO =        -0.00114336
  eigenvalues    EBANDS =       630.80119552
  atomic energy  EATOM  =     11229.46195210
  Solvation  Ediel_sol  =         0.00000000
  ---------------------------------------------------
  free energy    TOTEN  =      -103.33029499 eV

  energy without entropy =     -103.32915163  energy(sigma->0) =     -103.32972331


--------------------------------------------------------------------------------------------------------




--------------------------------------- Iteration      1(  14)  ---------------------------------------


    POTLOK:  cpu time    0.0969: real time    0.0975
    SETDIJ:  cpu time    0.0358: real time    0.0358
    EDDIAG:  cpu time    3.3361: real time    3.3389
  RMM-DIIS:  cpu time   11.4806: real time   11.4897
    ORTHCH:  cpu time    0.6316: real time    0.6320
       DOS:  cpu time    0.0037: real time    0.0037
    CHARGE:  cpu time    0.6991: real time    0.6996
    MIXING:  cpu time    0.0025: real time    0.0025
    --------------------------------------------
      LOOP:  cpu time   16.2863: real time   16.2998

 eigenvalue-minimisations  : 14465
 total energy-change (2. order) :-0.2565642E-02  (-0.9770776E-02)
 number of electron     128.0000327 magnetization       9.2363094
 augmentation part       67.6954247 magnetization       7.0431403

 Broyden mixing:
  rms(total) = 0.17885E+00    rms(broyden)= 0.17885E+00
  rms(prec ) = 0.26075E+00
  weight for this iteration     100.00

 eigenvalues of (default mixing * dielectric matrix)
  average eigenvalue GAMMA=   0.6681
  2.1776  0.8752  0.8752  0.5645  0.5645  0.1367  0.2130  0.2432  0.3633

 Free energy of the ion-electron system (eV)
  ---------------------------------------------------
  alpha Z        PSCENC =       533.56972965
  Ewald energy   TEWEN  =     -9297.05234846
  -Hartree energ DENC   =     -2932.31748771
  -exchange      EXHF   =         0.00000000
  -V(xc)+E(xc)   XCENC  =        75.46386808
  PAW double counting   =     12866.83426147   -13210.92081965
  entropy T*S    EENTRO =        -0.00111116
  eigenvalues    EBANDS =       631.62909504
  atomic energy  EATOM  =     11229.46195210
  Solvation  Ediel_sol  =         0.00000000
  ---------------------------------------------------
  free energy    TOTEN  =      -103.33286064 eV

  energy without entropy =     -103.33174948  energy(sigma->0) =     -103.33230506


--------------------------------------------------------------------------------------------------------




--------------------------------------- Iteration      1(  15)  ---------------------------------------


    POTLOK:  cpu time    0.0972: real time    0.0972
    SETDIJ:  cpu time    0.0361: real time    0.0361
    EDDIAG:  cpu time    3.3495: real time    3.3524
  RMM-DIIS:  cpu time   10.7804: real time   10.7890
    ORTHCH:  cpu time    0.6321: real time    0.6326
       DOS:  cpu time    0.0036: real time    0.0036
    CHARGE:  cpu time    0.6999: real time    0.7003
    MIXING:  cpu time    0.0027: real time    0.0027
    --------------------------------------------
      LOOP:  cpu time   15.6014: real time   15.6138

 eigenvalue-minimisations  : 13647
 total energy-change (2. order) : 0.7064665E-02  (-0.2881057E-02)
 number of electron     128.0000327 magnetization       9.1578823
 augmentation part       67.6728017 magnetization       6.9131387

 Broyden mixing:
  rms(total) = 0.10150E+00    rms(broyden)= 0.10149E+00
  rms(prec ) = 0.14882E+00
  weight for this iteration     100.00

 eigenvalues of (default mixing * dielectric matrix)
  average eigenvalue GAMMA=   0.7299
  2.2402  1.1220  1.1220  0.6853  0.6853  0.5725  0.1367  0.2117  0.2473  0.2759

 Free energy of the ion-electron system (eV)
  ---------------------------------------------------
  alpha Z        PSCENC =       533.56972965
  Ewald energy   TEWEN  =     -9297.05234846
  -Hartree energ DENC   =     -2932.36795100
  -exchange      EXHF   =         0.00000000
  -V(xc)+E(xc)   XCENC  =        75.41290793
  PAW double counting   =     12894.96404439   -13239.36796735
  entropy T*S    EENTRO =        -0.00134483
  eigenvalues    EBANDS =       632.05518160
  atomic energy  EATOM  =     11229.46195210
  Solvation  Ediel_sol  =         0.00000000
  ---------------------------------------------------
  free energy    TOTEN  =      -103.32579597 eV

  energy without entropy =     -103.32445114  energy(sigma->0) =     -103.32512356


--------------------------------------------------------------------------------------------------------




--------------------------------------- Iteration      1(  16)  ---------------------------------------


    POTLOK:  cpu time    0.0978: real time    0.0979
    SETDIJ:  cpu time    0.0361: real time    0.0361
    EDDIAG:  cpu time    3.3508: real time    3.3536
  RMM-DIIS:  cpu time   11.3425: real time   11.3514
    ORTHCH:  cpu time    0.6347: real time    0.6353
       DOS:  cpu time    0.0035: real time    0.0035
    CHARGE:  cpu time    0.6934: real time    0.6939
    MIXING:  cpu time    0.0027: real time    0.0027
    --------------------------------------------
      LOOP:  cpu time   16.1616: real time   16.1744

 eigenvalue-minimisations  : 14203
 total energy-change (2. order) :-0.8694733E-04  (-0.1346291E-02)
 number of electron     128.0000327 magnetization       9.1228732
 augmentation part       67.7070079 magnetization       6.8871546

 Broyden mixing:
  rms(total) = 0.59936E-01    rms(broyden)= 0.59935E-01
  rms(prec ) = 0.81215E-01
  weight for this iteration     100.00

 eigenvalues of (default mixing * dielectric matrix)
  average eigenvalue GAMMA=   0.7344
  2.3109  1.3916  0.9626  0.7147  0.7147  0.6468  0.4570  0.1367  0.2117  0.2456
  0.2862

 Free energy of the ion-electron system (eV)
  ---------------------------------------------------
  alpha Z        PSCENC =       533.56972965
  Ewald energy   TEWEN  =     -9297.05234846
  -Hartree energ DENC   =     -2931.42458544
  -exchange      EXHF   =         0.00000000
  -V(xc)+E(xc)   XCENC  =        75.39681567
  PAW double counting   =     12924.80580075   -13269.29610961
  entropy T*S    EENTRO =        -0.00130497
  eigenvalues    EBANDS =       631.21416739
  atomic energy  EATOM  =     11229.46195210
  Solvation  Ediel_sol  =         0.00000000
  ---------------------------------------------------
  free energy    TOTEN  =      -103.32588292 eV

  energy without entropy =     -103.32457795  energy(sigma->0) =     -103.32523043


--------------------------------------------------------------------------------------------------------




--------------------------------------- Iteration      1(  17)  ---------------------------------------


    POTLOK:  cpu time    0.0968: real time    0.0969
    SETDIJ:  cpu time    0.0359: real time    0.0359
    EDDIAG:  cpu time    3.3632: real time    3.3664
  RMM-DIIS:  cpu time   11.4196: real time   11.4324
    ORTHCH:  cpu time    0.6326: real time    0.6330
       DOS:  cpu time    0.0036: real time    0.0036
    CHARGE:  cpu time    0.7015: real time    0.7020
    MIXING:  cpu time    0.0030: real time    0.0030
    --------------------------------------------
      LOOP:  cpu time   16.2561: real time   16.2733

 eigenvalue-minimisations  : 14368
 total energy-change (2. order) : 0.1829265E-04  (-0.3931207E-03)
 number of electron     128.0000327 magnetization       9.0740695
 augmentation part       67.7167033 magnetization       6.8268235

 Broyden mixing:
  rms(total) = 0.36503E-01    rms(broyden)= 0.36503E-01
  rms(prec ) = 0.45162E-01
  weight for this iteration     100.00

 eigenvalues of (default mixing * dielectric matrix)
  average eigenvalue GAMMA=   0.7872
  2.5260  1.9191  0.9444  0.9444  0.6824  0.6824  0.5589  0.1367  0.2117  0.2461
  0.2927  0.3019

 Free energy of the ion-electron system (eV)
  ---------------------------------------------------
  alpha Z        PSCENC =       533.56972965
  Ewald energy   TEWEN  =     -9297.05234846
  -Hartree energ DENC   =     -2931.20667960
  -exchange      EXHF   =         0.00000000
  -V(xc)+E(xc)   XCENC  =        75.45242393
  PAW double counting   =     12932.16729579   -13276.69403214
  entropy T*S    EENTRO =        -0.00129021
  eigenvalues    EBANDS =       630.97708431
  atomic energy  EATOM  =     11229.46195210
  Solvation  Ediel_sol  =         0.00000000
  ---------------------------------------------------
  free energy    TOTEN  =      -103.32586463 eV

  energy without entropy =     -103.32457442  energy(sigma->0) =     -103.32521952


--------------------------------------------------------------------------------------------------------




--------------------------------------- Iteration      1(  18)  ---------------------------------------


    POTLOK:  cpu time    0.0969: real time    0.0975
    SETDIJ:  cpu time    0.0360: real time    0.0360
    EDDIAG:  cpu time    3.3649: real time    3.3679
  RMM-DIIS:  cpu time   11.2935: real time   11.3026
    ORTHCH:  cpu time    0.6335: real time    0.6340
       DOS:  cpu time    0.0036: real time    0.0037
    CHARGE:  cpu time    0.6976: real time    0.6981
    MIXING:  cpu time    0.0032: real time    0.0032
    --------------------------------------------
      LOOP:  cpu time   16.1292: real time   16.1430

 eigenvalue-minimisations  : 14093
 total energy-change (2. order) :-0.5233968E-03  (-0.2067299E-03)
 number of electron     128.0000326 magnetization       9.0708027
 augmentation part       67.7224268 magnetization       6.8270890

 Broyden mixing:
  rms(total) = 0.16509E-01    rms(broyden)= 0.16508E-01
  rms(prec ) = 0.21899E-01
  weight for this iteration     100.00

 eigenvalues of (default mixing * dielectric matrix)
  average eigenvalue GAMMA=   0.8273
  2.3724  2.3724  0.9715  0.9715  0.9826  0.6784  0.6784  0.5562  0.1367  0.2117
  0.2462  0.2785  0.2987

 Free energy of the ion-electron system (eV)
  ---------------------------------------------------
[...]
     79      11.2034      0.00000
     80      11.7245      0.00000
     81      11.8017      0.00000
     82      11.9282      0.00000
     83      12.0570      0.00000
     84      12.2131      0.00000


--------------------------------------------------------------------------------------------------------


 soft charge-density along one line, spin component           1
         0         1         2         3         4         5         6         7         8         9
 total charge-density along one line

 soft charge-density along one line, spin component           2
         0         1         2         3         4         5         6         7         8         9
 total charge-density along one line

 pseudopotential strength for first ion, spin component:           1
 -1.690   0.013   0.011  -0.013   0.000  -2.323   0.013   0.011
  0.013  -1.692   0.015   0.011  -0.029   0.013  -2.325   0.015
  0.011   0.015  -1.726  -0.015   0.000   0.011   0.015  -2.358
 -0.013   0.011  -0.015  -1.692  -0.029  -0.013   0.010  -0.015
  0.000  -0.029   0.000  -0.029  -1.721   0.000  -0.027   0.000
 -2.323   0.013   0.011  -0.013   0.000  -2.887   0.013   0.011
  0.013  -2.325   0.015   0.010  -0.027   0.013  -2.888   0.014
  0.011   0.015  -2.358  -0.015   0.000   0.011   0.014  -2.919
 -0.013   0.010  -0.015  -2.325  -0.027  -0.013   0.010  -0.014
  0.000  -0.027   0.000  -0.027  -2.352   0.000  -0.026   0.000
  0.000  -0.005   0.000   0.005   0.000   0.001  -0.005   0.000
  0.001  -0.009   0.000   0.009   0.000   0.001  -0.009   0.000
 -0.001  -0.005  -0.000   0.002  -0.001  -0.000  -0.005  -0.000
  0.002   0.001  -0.010  -0.001   0.000   0.001   0.001  -0.009
  0.001   0.002   0.000  -0.005  -0.001   0.000   0.001   0.000
 -0.001  -0.004  -0.000   0.002  -0.001  -0.000  -0.004  -0.000
  0.002   0.001  -0.009  -0.001   0.000   0.002   0.001  -0.009
  0.001   0.002   0.000  -0.004  -0.001   0.000   0.002   0.000
 pseudopotential strength for first ion, spin component:           2
 -1.490   0.001  -0.031  -0.001   0.000  -2.133   0.001  -0.030
  0.001  -1.499  -0.022   0.003   0.038   0.001  -2.142  -0.021
 -0.031  -0.022  -1.441   0.022   0.000  -0.030  -0.021  -2.085
 -0.001   0.003   0.022  -1.499   0.038  -0.001   0.002   0.021
  0.000   0.038   0.000   0.038  -1.431   0.000   0.036   0.000
 -2.133   0.001  -0.030  -0.001   0.000  -2.706   0.001  -0.028
  0.001  -2.142  -0.021   0.002   0.036   0.001  -2.714  -0.020
 -0.030  -0.021  -2.085   0.021   0.000  -0.028  -0.020  -2.660
 -0.001   0.002   0.021  -2.142   0.036  -0.001   0.002   0.020
  0.000   0.036   0.000   0.036  -2.076   0.000   0.034   0.000
 -0.007   0.008   0.001  -0.008   0.000  -0.007   0.008   0.001
 -0.013   0.015   0.003  -0.015   0.000  -0.013   0.014   0.003
 -0.001  -0.010  -0.001  -0.001  -0.002  -0.001  -0.009  -0.001
 -0.001   0.001  -0.011  -0.001   0.000  -0.001   0.001  -0.011
  0.001  -0.001   0.001  -0.010  -0.002   0.001  -0.001   0.001
 -0.002  -0.011  -0.002  -0.001  -0.002  -0.002  -0.010  -0.002
 -0.001   0.001  -0.012  -0.001   0.000  -0.001   0.001  -0.011
  0.002  -0.001   0.002  -0.011  -0.002   0.002  -0.001   0.002
 total augmentation occupancy for first ion, spin component:           1
  2.023   0.036  -0.001  -0.036   0.000  -0.547  -0.019  -0.003   0.019   0.000  -0.046   0.026  -0.016   0.035   0.016   0.001
  0.036   2.036  -0.027   0.095   0.034  -0.019  -0.560   0.023  -0.082  -0.034  -0.013   0.001   0.028   0.000   0.041  -0.012
 -0.001  -0.027   2.757   0.027   0.000  -0.002   0.023  -1.057  -0.023  -0.000  -0.033   0.004  -0.011  -0.063   0.011   0.001
 -0.036   0.095   0.027   2.036   0.034   0.019  -0.082  -0.023  -0.560  -0.034   0.013  -0.001   0.041  -0.000   0.028  -0.008
  0.000   0.034   0.000   0.034   2.808   0.000  -0.034   0.000  -0.034  -1.087   0.000  -0.000  -0.030  -0.000  -0.030   0.001
 -0.547  -0.019  -0.002   0.019   0.000   0.857   0.012  -0.006  -0.012   0.000   0.031  -0.017   0.016  -0.019  -0.016  -0.001
 -0.019  -0.560   0.023  -0.082  -0.034   0.012   0.867  -0.019   0.075   0.030   0.006  -0.001   0.003  -0.007  -0.024   0.001
 -0.003   0.023  -1.057  -0.023  -0.000  -0.006  -0.019   1.120   0.019  -0.000   0.024  -0.004   0.011   0.064  -0.011  -0.001
  0.019  -0.082  -0.023  -0.560  -0.034  -0.012   0.075   0.019   0.867   0.030  -0.006   0.001  -0.024   0.007   0.003   0.006
  0.000  -0.034  -0.000  -0.034  -1.087   0.000   0.030   0.000   0.030   1.130  -0.000   0.000   0.026  -0.000   0.026  -0.002
 -0.046  -0.013  -0.033   0.013  -0.000   0.031   0.006   0.024  -0.006  -0.000   2.132  -0.285  -0.016   0.055   0.016   0.002
  0.026   0.001   0.004  -0.001  -0.000  -0.017  -0.001  -0.004   0.001   0.000  -0.285   0.048   0.002   0.001  -0.002  -0.000
 -0.016   0.028  -0.011   0.041  -0.030   0.016   0.003   0.011  -0.024   0.026  -0.016   0.002   0.258   0.001   0.001  -0.027
  0.035   0.000  -0.063  -0.000   0.000  -0.019  -0.007   0.064   0.007   0.000   0.055   0.001   0.001   0.261  -0.001  -0.000
  0.016   0.041   0.011   0.028  -0.030  -0.016  -0.024  -0.011   0.003   0.026   0.016  -0.002   0.001  -0.001   0.258  -0.002
  0.001  -0.012   0.001  -0.008   0.001  -0.001   0.001  -0.001   0.006  -0.002   0.002  -0.000  -0.027  -0.000  -0.002   0.003
 -0.008  -0.000  -0.006   0.000   0.000   0.006   0.001  -0.007  -0.001  -0.000  -0.006  -0.000  -0.000  -0.027   0.000   0.000
 -0.001  -0.008  -0.001  -0.012   0.001   0.001   0.006   0.001   0.001  -0.002  -0.002   0.000  -0.002   0.000  -0.027   0.000
 total augmentation occupancy for first ion, spin component:           2
  0.378   0.167  -0.222  -0.167  -0.000  -0.232  -0.161   0.129   0.161  -0.000  -0.066   0.002  -0.014  -0.041   0.014   0.000
  0.167   0.311  -0.173   0.073   0.276  -0.161  -0.185   0.095  -0.073  -0.142   0.089  -0.005  -0.047  -0.001  -0.040   0.001
 -0.222  -0.173   0.539   0.173  -0.000   0.127   0.095  -0.264  -0.095   0.000   0.015   0.001  -0.010   0.019   0.010   0.001
 -0.167   0.073   0.173   0.311   0.276   0.161  -0.073  -0.095  -0.185  -0.142  -0.089   0.005  -0.040   0.001  -0.047   0.001
  0.000   0.276  -0.000   0.276   0.567   0.000  -0.142   0.000  -0.142  -0.281   0.000   0.000  -0.003  -0.000  -0.003  -0.001
 -0.232  -0.161   0.127   0.161  -0.000   0.118   0.143  -0.064  -0.143  -0.000   0.043  -0.008   0.012   0.029  -0.012  -0.001
 -0.161  -0.185   0.095  -0.073  -0.142   0.143   0.086  -0.042   0.066   0.055  -0.058   0.012   0.030   0.000   0.028  -0.003
  0.129   0.095  -0.264  -0.095   0.000  -0.064  -0.042   0.085   0.042  -0.000  -0.010   0.001   0.007  -0.020  -0.007  -0.001
  0.161  -0.073  -0.095  -0.185  -0.142  -0.143   0.066   0.042   0.086   0.055   0.058  -0.012   0.028  -0.000   0.030  -0.002
 -0.000  -0.142   0.000  -0.142  -0.281   0.000   0.055  -0.000   0.055   0.093  -0.000  -0.000   0.001   0.000   0.001   0.000
 -0.066   0.089   0.015  -0.089  -0.000   0.043  -0.058  -0.010   0.058  -0.000  -0.046   0.011  -0.006  -0.003   0.006   0.001
  0.002  -0.005   0.001   0.005   0.000  -0.008   0.012   0.001  -0.012  -0.000   0.011  -0.002   0.000  -0.002  -0.000  -0.000
 -0.014  -0.047  -0.010  -0.040  -0.003   0.012   0.030   0.007   0.028   0.001  -0.006   0.000  -0.001  -0.013   0.007   0.000
 -0.041  -0.001   0.019   0.001   0.000   0.029   0.000  -0.020  -0.000   0.000  -0.003  -0.002  -0.013  -0.005   0.013   0.002
  0.014  -0.040   0.010  -0.047  -0.003  -0.012   0.028  -0.007   0.030   0.001   0.006  -0.000   0.007   0.013  -0.001  -0.001
  0.000   0.001   0.001   0.001  -0.001  -0.001  -0.003  -0.001  -0.002   0.000   0.001  -0.000   0.000   0.002  -0.001   0.000
  0.002   0.000  -0.002  -0.000   0.000  -0.003  -0.000   0.001   0.000   0.000  -0.001   0.000   0.002   0.000  -0.002  -0.000
 -0.000   0.001  -0.001   0.001  -0.001   0.001  -0.002   0.001  -0.003   0.000  -0.001   0.000  -0.001  -0.002   0.000   0.000


------------------------ aborting loop because EDIFF is reached ----------------------------------------





 total charge     

# of ion       s       p       d       tot
------------------------------------------
    1        0.474   0.428   8.382   9.283
    2        0.473   0.429   8.368   9.270
    3        0.473   0.425   8.397   9.295
    4        0.473   0.428   8.379   9.280
    5        0.473   0.428   8.379   9.280
    6        0.473   0.425   8.397   9.295
    7        0.473   0.429   8.368   9.270
    8        0.474   0.428   8.382   9.283
    9        0.327   0.314   4.929   5.570
   10        0.309   0.291   4.909   5.509
   11        0.338   0.340   4.969   5.647
   12        0.357   0.359   4.952   5.668
   13        0.338   0.346   4.964   5.648
   14        0.344   0.338   4.885   5.567
   15        1.243   1.750   0.306   3.300
   16        1.250   1.750   0.310   3.310
--------------------------------------------------
tot          8.292   8.907  97.277 114.476



 magnetization (x)

# of ion       s       p       d       tot
------------------------------------------
    1       -0.005  -0.004   0.272   0.263
    2       -0.006   0.004   0.287   0.284
    3       -0.006  -0.006   0.253   0.241
    4       -0.006  -0.007   0.251   0.238
    5       -0.006  -0.007   0.251   0.238
    6       -0.006  -0.006   0.253   0.241
    7       -0.006   0.004   0.287   0.284
    8       -0.005  -0.004   0.272   0.263
    9       -0.029  -0.053  -3.474  -3.555
   10        0.034   0.042   3.640   3.716
   11        0.029   0.016   3.361   3.406
   12        0.021   0.036   3.403   3.460
   13        0.026   0.036   3.372   3.434
   14       -0.034  -0.070  -3.474  -3.578
   15       -0.008   0.026  -0.004   0.014
   16       -0.018  -0.042   0.007  -0.054
--------------------------------------------------
tot         -0.025  -0.036   8.956   8.895

    CHARGE:  cpu time    0.6658: real time    0.6684
    FORLOC:  cpu time    0.0066: real time    0.0066
    FORNL :  cpu time    4.9569: real time    4.9695
    STRESS:  cpu time   14.9271: real time   14.9705
    FORCOR:  cpu time    0.0982: real time    0.1000
    FORHAR:  cpu time    0.0160: real time    0.0160
    MIXING:  cpu time    0.0036: real time    0.0036
    OFIELD:  cpu time    0.0000: real time    0.0000

  FORCE on cell =-STRESS in cart. coord.  units (eV):
  Direction    XX          YY          ZZ          XY          YZ          ZX
  --------------------------------------------------------------------------------------
  Alpha Z   533.56973   533.56973   533.56973
  Ewald   -2986.25693 -2986.25693 -3324.56704     0.00000    -0.00000     0.00000
  Hartree  1082.51853  1082.51853   766.18813    -0.00000    -0.00000    -0.00000
  E(xc)    -670.91568  -670.91568  -670.75424    -0.00000    -0.00000     0.00000
  Local    -457.12708  -457.12708   201.61886     0.00000    -0.00000     0.00000
  n-local  -147.78305  -144.48237  -146.19927    -0.27641    -0.93601     0.20450
  augment  1580.15060  1580.15060  1577.73776     0.00000    -0.00000     0.00000
  Kinetic  1055.69399  1072.81689  1060.58055     0.80131     0.93683     1.69044
  Fock        0.00000     0.00000     0.00000     0.00000     0.00000     0.00000
  -------------------------------------------------------------------------------------
  Total       0.06191     0.06191    -1.82553     0.00000     0.00000     0.00000
  in kB       0.47036     0.47036   -13.86896     0.00000     0.00000     0.00000
  external pressure =       -4.31 kB  Pullay stress =        0.00 kB


 VOLUME and BASIS-vectors are now :
 -----------------------------------------------------------------------------
  energy-cutoff  :      550.00
  volume of cell :      210.89
      direct lattice vectors                 reciprocal lattice vectors
     5.952307941  0.000000000  0.000000000     0.168002061  0.000000000  0.000000000
     0.000000000  5.952307941  0.000000000     0.000000000  0.168002061  0.000000000
     0.000000000  0.000000000  5.952307941     0.000000000  0.000000000  0.168002061

  length of vectors
     5.952307941  5.952307941  5.952307941     0.168002061  0.168002061  0.168002061


 FORCES acting on ions
    electron-ion (+dipol)            ewald-force                    non-local-force                 convergence-correction
 -----------------------------------------------------------------------------------------------
   0.289E+02 -.289E+02 0.173E+03   -.289E+02 0.289E+02 -.171E+03   -.405E-01 0.405E-01 -.256E+01   0.128E-01 -.128E-01 -.463E-01
   -.289E+02 -.289E+02 0.173E+03   0.289E+02 0.289E+02 -.171E+03   0.405E-01 0.405E-01 -.256E+01   -.128E-01 -.128E-01 -.463E-01
   0.289E+02 0.289E+02 0.173E+03   -.289E+02 -.289E+02 -.171E+03   -.405E-01 -.405E-01 -.256E+01   0.128E-01 0.128E-01 -.463E-01
   -.289E+02 0.289E+02 0.173E+03   0.289E+02 -.289E+02 -.171E+03   0.405E-01 -.405E-01 -.256E+01   -.128E-01 0.128E-01 -.463E-01
   0.289E+02 -.289E+02 -.173E+03   -.289E+02 0.289E+02 0.171E+03   -.405E-01 0.405E-01 0.256E+01   0.128E-01 -.128E-01 0.463E-01
   -.289E+02 -.289E+02 -.173E+03   0.289E+02 0.289E+02 0.171E+03   0.405E-01 0.405E-01 0.256E+01   -.128E-01 -.128E-01 0.463E-01
   0.289E+02 0.289E+02 -.173E+03   -.289E+02 -.289E+02 0.171E+03   -.405E-01 -.405E-01 0.256E+01   0.128E-01 0.128E-01 0.463E-01
   -.289E+02 0.289E+02 -.173E+03   0.289E+02 -.289E+02 0.171E+03   0.405E-01 -.405E-01 0.256E+01   -.128E-01 0.128E-01 0.463E-01
   0.238E-12 -.342E-14 -.627E-12   -.720E-13 -.304E-13 -.739E-13   0.000E+00 0.000E+00 0.000E+00   -.232E-13 0.354E-13 0.839E-13
   -.386E-13 0.214E-12 -.852E-13   0.539E-13 0.141E-13 -.291E-14   0.000E+00 0.000E+00 0.000E+00   0.828E-13 -.388E-13 0.794E-13
   -.530E-13 -.568E-13 0.236E-12   0.867E-13 0.411E-16 -.106E-14   0.000E+00 0.000E+00 0.000E+00   0.274E-13 0.517E-13 -.790E-13
   0.233E-12 -.484E-13 0.160E-11   -.292E-13 0.426E-13 0.185E-13   0.000E+00 0.000E+00 0.000E+00   -.227E-14 0.568E-13 -.962E-13
   0.231E-12 0.111E-12 0.954E-12   0.617E-13 0.294E-13 0.131E-13   0.000E+00 0.000E+00 0.000E+00   -.471E-13 -.440E-13 -.990E-13
   -.465E-13 0.214E-12 0.226E-12   0.253E-13 -.418E-13 -.243E-13   0.000E+00 0.000E+00 0.000E+00   0.643E-13 -.456E-13 -.777E-13
   -.245E-13 -.166E-13 -.313E-13   -.356E-13 -.178E-13 0.670E-14   0.000E+00 0.000E+00 0.000E+00   0.158E-13 0.125E-13 0.286E-13
   -.204E-13 -.504E-12 0.235E-13   -.276E-13 0.109E-14 0.103E-13   0.000E+00 0.000E+00 0.000E+00   -.256E-13 -.120E-13 0.308E-13
 -----------------------------------------------------------------------------------------------
   0.127E-10 0.268E-10 0.816E-10   0.136E-13 0.540E-13 -.537E-13   0.000E+00 0.000E+00 0.444E-15   0.425E-12 0.102E-12 -.541E-12


 POSITION                                       TOTAL-FORCE (eV/Angst)
 -----------------------------------------------------------------------------------
      1.51833      1.45782      1.59310        -0.005311      0.005311      0.001741
      4.43397      1.45782      1.59310         0.005311      0.005311      0.001741
      1.51833      4.49449      1.59310        -0.005311     -0.005311      0.001741
      4.43397      4.49449      1.59310         0.005311     -0.005311      0.001741
      1.51833      1.45782      4.35921        -0.005311      0.005311     -0.001741
      4.43397      1.45782      4.35921         0.005311      0.005311     -0.001741
      1.51833      4.49449      4.35921        -0.005311     -0.005311     -0.001741
      4.43397      4.49449      4.35921         0.005311     -0.005311     -0.001741
      2.97615      0.00000      0.00000         0.000000     -0.000000      0.000000
      0.00000      2.97615      0.00000         0.000000     -0.000000      0.000000
      0.00000      0.00000      2.97615         0.000000     -0.000000      0.000000
      2.97615      0.00000      2.97615         0.000000     -0.000000      0.000000
      2.97615      2.97615      2.97615         0.000000     -0.000000      0.000000
      0.00000      2.97615      2.97615         0.000000     -0.000000      0.000000
      0.00000      0.00000      0.00000         0.000000     -0.000000      0.000000
      2.97615      2.97615      0.00000         0.000000     -0.000000      0.000000
 -----------------------------------------------------------------------------------
    total drift:                                0.000000      0.000000      0.000000


--------------------------------------------------------------------------------------------------------



  FREE ENERGIE OF THE ION-ELECTRON SYSTEM (eV)
  ---------------------------------------------------
  free  energy   TOTEN  =      -103.32629562 eV

  energy  without entropy=     -103.32496851  energy(sigma->0) =     -103.32563207



--------------------------------------------------------------------------------------------------------


    POTLOK:  cpu time    0.1331: real time    0.1332


--------------------------------------------------------------------------------------------------------




--------------------------------------------------------------------------------------------------------


  
 reached required accuracy - stopping structural energy minimisation
     LOOP+:  cpu time  394.0705: real time  394.5878
    4ORBIT:  cpu time    0.0000: real time    0.0000



 total charge     

# of ion       s       p       d       tot
------------------------------------------
    1        0.474   0.428   8.382   9.283
    2        0.473   0.429   8.368   9.270
    3        0.473   0.425   8.397   9.295
    4        0.473   0.428   8.379   9.280
    5        0.473   0.428   8.379   9.280
    6        0.473   0.425   8.397   9.295
    7        0.473   0.429   8.368   9.270
    8        0.474   0.428   8.382   9.283
    9        0.327   0.314   4.929   5.570
   10        0.309   0.291   4.909   5.509
   11        0.338   0.340   4.969   5.647
   12        0.357   0.359   4.952   5.668
   13        0.338   0.346   4.964   5.648
   14        0.344   0.338   4.885   5.567
   15        1.243   1.750   0.306   3.300
   16        1.250   1.750   0.310   3.310
--------------------------------------------------
tot          8.292   8.907  97.277 114.476



 magnetization (x)

# of ion       s       p       d       tot
------------------------------------------
    1       -0.005  -0.004   0.272   0.263
    2       -0.006   0.004   0.287   0.284
    3       -0.006  -0.006   0.253   0.241
    4       -0.006  -0.007   0.251   0.238
    5       -0.006  -0.007   0.251   0.238
    6       -0.006  -0.006   0.253   0.241
    7       -0.006   0.004   0.287   0.284
    8       -0.005  -0.004   0.272   0.263
    9       -0.029  -0.053  -3.474  -3.555
   10        0.034   0.042   3.640   3.716
   11        0.029   0.016   3.361   3.406
   12        0.021   0.036   3.403   3.460
   13        0.026   0.036   3.372   3.434
   14       -0.034  -0.070  -3.474  -3.578
   15       -0.008   0.026  -0.004   0.014
   16       -0.018  -0.042   0.007  -0.054
--------------------------------------------------
tot         -0.025  -0.036   8.956   8.895


 total amount of memory used by VASP MPI-rank0   103328. kBytes
=======================================================================

   base      :      30000. kBytes
   nonlr-proj:       6821. kBytes
   fftplans  :       1269. kBytes
   grid      :       6573. kBytes
   one-center:        497. kBytes
   wavefun   :      58168. kBytes

  
  
 General timing and accounting informations for this job:
 ========================================================
  
                  Total CPU time used (sec):      404.705
                            User time (sec):      384.011
                          System time (sec):       20.693
                         Elapsed time (sec):      406.682
  
                   Maximum memory used (kb):      136576.
                   Average memory used (kb):           0.
  
                          Minor page faults:      7575126
                          Major page faults:           15
                 Voluntary context switches:         2176
