 vasp.5.4.4.18Apr17-6-g9f103f2a35 (build May 21 2018 20:56:50) complex           
 executed on             LinuxGNU date 2021.10.15  15:42:48
 running on   12 total cores
 distrk:  each k-point on   12 cores,    1 groups
 distr:  one band on NCORES_PER_BAND=   1 cores,   12 groups


--------------------------------------------------------------------------------------------------------


 INCAR:
 POTCAR:    PAW_PBE Ni 02Aug2007                  
 POTCAR:    PAW_PBE Mn 06Sep2000                  
 POTCAR:    PAW_PBE In 08Apr2002                  

 ----------------------------------------------------------------------------- 
|                                                                             |
|           W    W    AA    RRRRR   N    N  II  N    N   GGGG   !!!           |
|           W    W   A  A   R    R  NN   N  II  NN   N  G    G  !!!           |
|           W    W  A    A  R    R  N N  N  II  N N  N  G       !!!           |
|           W WW W  AAAAAA  RRRRR   N  N N  II  N  N N  G  GGG   !            |
|           WW  WW  A    A  R   R   N   NN  II  N   NN  G    G                |
|           W    W  A    A  R    R  N    N  II  N    N   GGGG   !!!           |
|                                                                             |
|      For optimal performance we recommend to set                            |
|        NCORE= 4 - approx SQRT( number of cores)                             |
|      NCORE specifies how many cores store one orbital (NPAR=cpu/NCORE).     |
|      This setting can  greatly improve the performance of VASP for DFT.     |
|      The default,   NCORE=1            might be grossly inefficient         |
|      on modern multi-core architectures or massively parallel machines.     |
|      Do your own testing !!!!                                               |
|      Unfortunately you need to use the default for GW and RPA calculations. |
|      (for HF NCORE is supported but not extensively tested yet)             |
|                                                                             |
 ----------------------------------------------------------------------------- 

 POTCAR:    PAW_PBE Ni 02Aug2007                  
   VRHFIN =Ni:                                                                  
   LEXCH  = PE                                                                  
   EATOM  =  1077.6739 eV,   79.2068 Ry                                         
                                                                                
   TITEL  = PAW_PBE Ni 02Aug2007                                                
   LULTRA =        F    use ultrasoft PP ?                                      
   IUNSCR =        1    unscreen: 0-lin 1-nonlin 2-no                           
   RPACOR =    2.000    partial core radius                                     
   POMASS =   58.690; ZVAL   =   10.000    mass and valenz                      
   RCORE  =    2.300    outmost cutoff radius                                   
   RWIGS  =    2.430; RWIGS  =    1.286    wigner-seitz radius (au A)           
   ENMAX  =  269.532; ENMIN  =  202.149 eV                                      
   RCLOC  =    1.201    cutoff for local pot                                    
   LCOR   =        T    correct aug charges                                     
   LPAW   =        T    paw PP                                                  
   EAUG   =  544.565                                                            
   DEXC   =    0.000                                                            
   RMAX   =    2.357    core radius for proj-oper                               
   RAUG   =    1.300    factor for augmentation sphere                          
   RDEP   =    2.390    radius for radial grids                                 
   RDEPT  =    1.838    core radius for aug-charge                              
                                                                                
   Atomic configuration                                                         
    9 entries                                                                   
     n  l   j            E        occ.                                          
     1  0  0.50     -8206.4253   2.0000                                         
     2  0  0.50      -976.1748   2.0000                                         
     2  1  1.50      -839.0571   6.0000                                         
     3  0  0.50      -105.9991   2.0000                                         
     3  1  1.50       -66.4603   6.0000                                         
     3  2  2.50        -4.6458   9.0000                                         
     4  0  0.50        -4.4926   1.0000                                         
     4  1  1.50        -4.0817   0.0000                                         
     4  3  2.50        -1.3606   0.0000                                         
   Description                                                                  
     l       E           TYP  RCUT    TYP  RCUT                                 
     2     -4.6457903     23  2.300                                             
     2     -6.0063729     23  2.300                                             
     0     -4.4925590     23  2.300                                             
     0      5.0102601     23  2.300                                             
     1     -2.7211652     23  2.300                                             
     1     16.5183231     23  2.300                                             
  local pseudopotential read in
  partial core-charges read in
  partial kinetic energy density read in
  atomic valenz-charges read in
  non local Contribution for L=           2  read in
    real space projection operators read in
  non local Contribution for L=           2  read in
    real space projection operators read in
  non local Contribution for L=           0  read in
    real space projection operators read in
  non local Contribution for L=           0  read in
    real space projection operators read in
  non local Contribution for L=           1  read in
    real space projection operators read in
  non local Contribution for L=           1  read in
    real space projection operators read in
    PAW grid and wavefunctions read in

   number of l-projection  operators is LMAX  =           6
   number of lm-projection operators is LMMAX =          18

 POTCAR:    PAW_PBE Mn 06Sep2000                  
   VRHFIN =Mn: d6 s1                                                            
   LEXCH  = PE                                                                  
   EATOM  =   416.7541 eV,   30.6306 Ry                                         
                                                                                
   TITEL  = PAW_PBE Mn 06Sep2000                                                
   LULTRA =        F    use ultrasoft PP ?                                      
   IUNSCR =        1    unscreen: 0-lin 1-nonlin 2-no                           
   RPACOR =    2.000    partial core radius                                     
   POMASS =   54.938; ZVAL   =    7.000    mass and valenz                      
   RCORE  =    2.300    outmost cutoff radius                                   
   RWIGS  =    2.500; RWIGS  =    1.323    wigner-seitz radius (au A)           
   ENMAX  =  269.864; ENMIN  =  202.398 eV                                      
   RCLOC  =    1.725    cutoff for local pot                                    
   LCOR   =        T    correct aug charges                                     
   LPAW   =        T    paw PP                                                  
   EAUG   =  500.711                                                            
   DEXC   =    0.000                                                            
   RMAX   =    2.343    core radius for proj-oper                               
   RAUG   =    1.300    factor for augmentation sphere                          
   RDEP   =    2.338    radius for radial grids                                 
   RDEPT  =    1.911    core radius for aug-charge                              
                                                                                
   Atomic configuration                                                         
    9 entries                                                                   
     n  l   j            E        occ.                                          
     1  0  0.50     -6424.8288   2.0000                                         
     2  0  0.50      -739.1154   2.0000                                         
     2  1  1.50      -625.3949   6.0000                                         
     3  0  0.50       -81.6100   2.0000                                         
     3  1  1.50       -50.4667   6.0000                                         
     3  2  2.50        -3.3745   6.0000                                         
     4  0  0.50        -4.1331   1.0000                                         
     4  1  0.50        -4.0817   0.0000                                         
     4  3  2.50        -1.3606   0.0000                                         
   Description                                                                  
     l       E           TYP  RCUT    TYP  RCUT                                 
     2     -3.3744664     23  2.300                                             
     2     -4.7350490     23  2.300                                             
     0     -4.1331408     23  2.300                                             
     0      7.6656614     23  2.300                                             
     1     -2.7211652     23  2.300                                             
     1     20.4087390     23  2.300                                             
  local pseudopotential read in
  partial core-charges read in
  partial kinetic energy density read in
  atomic valenz-charges read in
  non local Contribution for L=           2  read in
    real space projection operators read in
  non local Contribution for L=           2  read in
    real space projection operators read in
  non local Contribution for L=           0  read in
    real space projection operators read in
  non local Contribution for L=           0  read in
    real space projection operators read in
  non local Contribution for L=           1  read in
    real space projection operators read in
  non local Contribution for L=           1  read in
    real space projection operators read in
    PAW grid and wavefunctions read in

   number of l-projection  operators is LMAX  =           6
   number of lm-projection operators is LMMAX =          18

 POTCAR:    PAW_PBE In 08Apr2002                  
   VRHFIN =In: s2p1                                                             
   LEXCH  = PE                                                                  
   EATOM  =    53.7908 eV,    3.9535 Ry                                         
                                                                                
   TITEL  = PAW_PBE In 08Apr2002                                                
   LULTRA =        F    use ultrasoft PP ?                                      
   IUNSCR =        1    unscreen: 0-lin 1-nonlin 2-no                           
   RPACOR =    2.400    partial core radius                                     
   POMASS =  114.820; ZVAL   =    3.000    mass and valenz                      
   RCORE  =    3.100    outmost cutoff radius                                   
   RWIGS  =    3.170; RWIGS  =    1.677    wigner-seitz radius (au A)           
   ENMAX  =   95.934; ENMIN  =   71.951 eV                                      
   ICORE  =        3    local potential                                         
   LCOR   =        T    correct aug charges                                     
   LPAW   =        T    paw PP                                                  
   EAUG   =  237.125                                                            
   DEXC   =    0.000                                                            
   RMAX   =    3.168    core radius for proj-oper                               
   RAUG   =    1.300    factor for augmentation sphere                          
   RDEP   =    3.187    radius for radial grids                                 
   RDEPT  =    2.711    core radius for aug-charge                              
                                                                                
   Atomic configuration                                                         
   13 entries                                                                   
     n  l   j            E        occ.                                          
     1  0  0.50    -27747.9169   2.0000                                         
     2  0  0.50     -4154.4438   2.0000                                         
     2  1  1.50     -3728.4305   6.0000                                         
     3  0  0.50      -788.3680   2.0000                                         
     3  1  1.50      -648.9215   6.0000                                         
     3  2  2.50      -432.5893  10.0000                                         
     4  0  0.50      -119.6363   2.0000                                         
     4  1  1.50       -78.1086   6.0000                                         
     4  2  2.50       -18.6227  10.0000                                         
     5  0  0.50        -8.2107   2.0000                                         
     5  1  0.50        -2.5185   1.0000                                         
     5  2  2.50        -1.3606   0.0000                                         
     4  3  2.50        -2.7212   0.0000                                         
   Description                                                                  
     l       E           TYP  RCUT    TYP  RCUT                                 
     0     -8.2107306     23  3.100                                             
     0     -6.1485975     23  3.100                                             
     1     -2.5184867     23  3.100                                             
     1      3.2427302     23  3.100                                             
     2     -1.3605826     23  3.100                                             
     3     -1.3605826     23  3.100                                             
  local pseudopotential read in
  partial core-charges read in
  partial kinetic energy density read in
  atomic valenz-charges read in
  non local Contribution for L=           0  read in
    real space projection operators read in
  non local Contribution for L=           0  read in
    real space projection operators read in
  non local Contribution for L=           1  read in
    real space projection operators read in
  non local Contribution for L=           1  read in
    real space projection operators read in
  non local Contribution for L=           2  read in
    real space projection operators read in
    PAW grid and wavefunctions read in

   number of l-projection  operators is LMAX  =           5
   number of lm-projection operators is LMMAX =          13

 Optimization of the real space projectors (new method)

 maximal supplied QI-value         = 16.25
 optimisation between [QCUT,QGAM] = [ 11.86, 23.89] = [ 39.41,159.82] Ry 
 Optimized for a Real-space Cutoff    1.33 Angstroem

   l    n(q)    QCUT    max X(q) W(low)/X(q) W(high)/X(q)  e(spline) 
   2      9    11.864    60.317    0.21E-03    0.51E-03    0.25E-06
   2      9    11.864    55.921    0.21E-03    0.51E-03    0.26E-06
   0      9    11.864    51.690    0.22E-03    0.30E-04    0.17E-06
   0      9    11.864    30.015    0.20E-03    0.28E-04    0.15E-06
   1      9    11.864    18.849    0.76E-04    0.33E-03    0.17E-06
   1      9    11.864    14.624    0.60E-04    0.28E-03    0.15E-06
 Optimization of the real space projectors (new method)

 maximal supplied QI-value         = 16.25
 optimisation between [QCUT,QGAM] = [ 11.86, 23.89] = [ 39.41,159.82] Ry 
 Optimized for a Real-space Cutoff    1.36 Angstroem

   l    n(q)    QCUT    max X(q) W(low)/X(q) W(high)/X(q)  e(spline) 
   2      9    11.864   110.144    0.49E-03    0.50E-03    0.21E-06
   2      9    11.864   103.200    0.49E-03    0.51E-03    0.22E-06
   0     10    11.864    68.437    0.12E-03    0.41E-04    0.21E-06
   0     10    11.864    33.971    0.11E-03    0.36E-04    0.19E-06
   1      9    11.864    17.065    0.24E-03    0.26E-03    0.93E-07
   1      9    11.864    12.540    0.19E-03    0.20E-03    0.80E-07
 Optimization of the real space projectors (new method)

 maximal supplied QI-value         = 12.09
 optimisation between [QCUT,QGAM] = [ 11.97, 23.95] = [ 40.14,160.58] Ry 
 Optimized for a Real-space Cutoff    1.63 Angstroem

   l    n(q)    QCUT    max X(q) W(low)/X(q) W(high)/X(q)  e(spline) 
   0     12    11.973   106.980    0.33E-03    0.16E-03    0.25E-05
   0     12    11.973    81.086    0.37E-03    0.18E-03    0.28E-05
   1     11    11.973    53.097    0.22E-03    0.42E-03    0.40E-05
   1     11    11.973    32.621    0.20E-03    0.40E-03    0.37E-05
   2     11    11.973     8.820    0.30E-03    0.17E-03    0.41E-06
  PAW_PBE Ni 02Aug2007                  :
 energy of atom  1       EATOM=-1077.6739
 kinetic energy error for atom=    0.0027 (will be added to EATOM!!)
  PAW_PBE Mn 06Sep2000                  :
 energy of atom  2       EATOM= -416.7541
 kinetic energy error for atom=    0.0022 (will be added to EATOM!!)
  PAW_PBE In 08Apr2002                  :
 energy of atom  3       EATOM=  -53.7908
 kinetic energy error for atom=    0.0000 (will be added to EATOM!!)


 POSCAR: Ni2MnIn                                 
  positions in direct lattice
  velocities in cartesian coordinates
 exchange correlation table for  LEXCH =        8
   RHO(1)=    0.500       N(1)  =     2000
   RHO(2)=  100.500       N(2)  =     4000



--------------------------------------------------------------------------------------------------------


 ion  position               nearest neighbor table
   1  0.250  0.250  0.270-  11 2.51  12 2.51  13 2.51  14 2.51   9 2.65  10 2.65  15 2.65  16 2.65
                             5 2.74   3 2.98   2 2.98   3 2.98   2 2.98
   2  0.750  0.250  0.270-  11 2.51  12 2.51  13 2.51  14 2.51   9 2.65  10 2.65  15 2.65  16 2.65
                             6 2.74   4 2.98   1 2.98   4 2.98   1 2.98
   3  0.250  0.750  0.270-  11 2.51  12 2.51  13 2.51  14 2.51   9 2.65  10 2.65  15 2.65  16 2.65
                             7 2.74   4 2.98   1 2.98   1 2.98   4 2.98
   4  0.750  0.750  0.270-  11 2.51  12 2.51  13 2.51  14 2.51   9 2.65  10 2.65  15 2.65  16 2.65
                             8 2.74   3 2.98   2 2.98   2 2.98   3 2.98
   5  0.250  0.250  0.730-  11 2.51  12 2.51  13 2.51  14 2.51   9 2.65  10 2.65  15 2.65  16 2.65
                             1 2.74   6 2.98   7 2.98   7 2.98   6 2.98
   6  0.750  0.250  0.730-  11 2.51  12 2.51  13 2.51  14 2.51   9 2.65  10 2.65  15 2.65  16 2.65
                             2 2.74   5 2.98   8 2.98   8 2.98   5 2.98
   7  0.250  0.750  0.730-  11 2.51  12 2.51  13 2.51  14 2.51   9 2.65  10 2.65  15 2.65  16 2.65
                             3 2.74   5 2.98   8 2.98   5 2.98   8 2.98
   8  0.750  0.750  0.730-  11 2.51  12 2.51  13 2.51  14 2.51   9 2.65  10 2.65  15 2.65  16 2.65
                             4 2.74   6 2.98   7 2.98   6 2.98   7 2.98
   9  0.500  0.000  0.000-   1 2.65   2 2.65   3 2.65   4 2.65   5 2.65   6 2.65   7 2.65   8 2.65
                            12 2.98  15 2.98  16 2.98  12 2.98  16 2.98  15 2.98
  10  0.000  0.500  0.000-   1 2.65   2 2.65   3 2.65   4 2.65   5 2.65   6 2.65   7 2.65   8 2.65
                            14 2.98  15 2.98  16 2.98  14 2.98  15 2.98  16 2.98
  11  0.000  0.000  0.500-   1 2.51   2 2.51   3 2.51   4 2.51   5 2.51   6 2.51   7 2.51   8 2.51
                            12 2.98  14 2.98  15 2.98  15 2.98  14 2.98  12 2.98
  12  0.500  0.000  0.500-   1 2.51   2 2.51   3 2.51   4 2.51   5 2.51   6 2.51   7 2.51   8 2.51
                             9 2.98  11 2.98  13 2.98   9 2.98  13 2.98  11 2.98
  13  0.500  0.500  0.500-   1 2.51   2 2.51   3 2.51   4 2.51   5 2.51   6 2.51   7 2.51   8 2.51
                            12 2.98  14 2.98  16 2.98  16 2.98  12 2.98  14 2.98
  14  0.000  0.500  0.500-   1 2.51   2 2.51   3 2.51   4 2.51   5 2.51   6 2.51   7 2.51   8 2.51
                            10 2.98  11 2.98  13 2.98  10 2.98  11 2.98  13 2.98
  15  0.000  0.000  0.000-   1 2.65   2 2.65   3 2.65   4 2.65   5 2.65   6 2.65   7 2.65   8 2.65
                             9 2.98  10 2.98  11 2.98  11 2.98  10 2.98   9 2.98
  16  0.500  0.500  0.000-   1 2.65   2 2.65   3 2.65   4 2.65   5 2.65   6 2.65   7 2.65   8 2.65
                             9 2.98  10 2.98  13 2.98  13 2.98   9 2.98  10 2.98

  LATTYP: Found a simple cubic cell.
 ALAT       =     5.9589310588
  
  Lattice vectors:
  
 A1 = (   5.9589310588,   0.0000000000,   0.0000000000)
 A2 = (   0.0000000000,   5.9589310588,   0.0000000000)
 A3 = (   0.0000000000,   0.0000000000,   5.9589310588)


Analysis of symmetry for initial positions (statically):
=====================================================================
 Subroutine PRICEL returns following result:
 
  LATTYP: Found a simple tetragonal cell.
 ALAT       =     4.2136005603
 C/A-ratio  =     1.4142135624
  
  Lattice vectors:
  
 A1 = (   2.9794655294,  -2.9794655294,   0.0000000000)
 A2 = (  -2.9794655294,  -2.9794655294,   0.0000000000)
 A3 = (   0.0000000000,   0.0000000000,  -5.9589310588)
 
   2 primitive cells build up your supercell.
 

 Routine SETGRP: Setting up the symmetry group for a 
 simple cubic supercell.


 Subroutine GETGRP returns: Found 16 space group operations
 (whereof 16 operations were pure point group operations)
 out of a pool of 48 trial point group operations.


The static configuration has the point symmetry D_4h.


Analysis of symmetry for dynamics (positions and initial velocities):
=====================================================================
 Subroutine PRICEL returns following result:
 
  LATTYP: Found a simple tetragonal cell.
 ALAT       =     4.2136005603
 C/A-ratio  =     1.4142135624
  
  Lattice vectors:
  
 A1 = (   2.9794655294,  -2.9794655294,   0.0000000000)
 A2 = (  -2.9794655294,  -2.9794655294,   0.0000000000)
 A3 = (   0.0000000000,   0.0000000000,  -5.9589310588)
 
   2 primitive cells build up your supercell.
 

 Routine SETGRP: Setting up the symmetry group for a 
 simple cubic supercell.


 Subroutine GETGRP returns: Found 16 space group operations
 (whereof 16 operations were pure point group operations)
 out of a pool of 48 trial point group operations.


The dynamic configuration has the point symmetry D_4h.


Analysis of structural, dynamic, and magnetic symmetry:
=====================================================================
 Subroutine PRICEL returns following result:
 
  LATTYP: Found a simple tetragonal cell.
 ALAT       =     4.2136005603
 C/A-ratio  =     1.4142135624
  
  Lattice vectors:
  
 A1 = (   2.9794655294,  -2.9794655294,   0.0000000000)
 A2 = (  -2.9794655294,  -2.9794655294,   0.0000000000)
 A3 = (   0.0000000000,   0.0000000000,  -5.9589310588)
 
   2 primitive cells build up your supercell.
 

 Routine SETGRP: Setting up the symmetry group for a 
 simple cubic supercell.


 Subroutine GETGRP returns: Found 16 space group operations
 (whereof 16 operations were pure point group operations)
 out of a pool of 48 trial point group operations.


The magnetic configuration has the point symmetry D_4h.


 Subroutine INISYM returns: Found 16 space group operations
 (whereof 16 operations are pure point group operations),
 and found     2 'primitive' translations



 KPOINTS: k-points                                

Automatic generation of k-mesh.
Space group operators:
 irot       det(A)        alpha          n_x          n_y          n_z        tau_x        tau_y        tau_z
    1     1.000000     0.000000     1.000000     0.000000     0.000000     0.000000    -0.000000    -0.000000
    2    -1.000000     0.000000     1.000000     0.000000     0.000000     0.000000    -0.000000    -0.000000
    3     1.000000    90.000000     0.000000     0.000000    -1.000000     0.000000    -0.000000    -0.000000
    4    -1.000000    90.000000     0.000000     0.000000    -1.000000     0.000000    -0.000000    -0.000000
    5     1.000000   180.000000     0.000000     0.000000     1.000000     0.000000    -0.000000    -0.000000
    6    -1.000000   180.000000     0.000000     0.000000     1.000000     0.000000    -0.000000    -0.000000
    7     1.000000    90.000000     0.000000     0.000000     1.000000     0.000000    -0.000000    -0.000000
    8    -1.000000    90.000000     0.000000     0.000000     1.000000     0.000000    -0.000000    -0.000000
    9     1.000000   180.000000     1.000000     0.000000     0.000000     0.000000    -0.000000    -0.000000
   10    -1.000000   180.000000     1.000000     0.000000     0.000000     0.000000    -0.000000    -0.000000
   11     1.000000   180.000000     0.707107     0.707107     0.000000     0.000000    -0.000000    -0.000000
   12    -1.000000   180.000000     0.707107     0.707107     0.000000     0.000000    -0.000000    -0.000000
   13     1.000000   180.000000     0.000000     1.000000     0.000000     0.000000    -0.000000    -0.000000
   14    -1.000000   180.000000     0.000000     1.000000     0.000000     0.000000    -0.000000    -0.000000
   15     1.000000   180.000000     0.707107    -0.707107     0.000000     0.000000    -0.000000    -0.000000
   16    -1.000000   180.000000     0.707107    -0.707107     0.000000     0.000000    -0.000000    -0.000000
 
 Subroutine IBZKPT returns following result:
 ===========================================
 
 Found     40 irreducible k-points:
 
 Following reciprocal coordinates:
            Coordinates               Weight
  0.000000  0.000000  0.000000      1.000000
  0.142857  0.000000  0.000000      4.000000
  0.285714  0.000000  0.000000      4.000000
  0.428571  0.000000  0.000000      4.000000
  0.142857  0.142857  0.000000      4.000000
  0.285714  0.142857  0.000000      8.000000
  0.428571  0.142857  0.000000      8.000000
  0.285714  0.285714  0.000000      4.000000
  0.428571  0.285714  0.000000      8.000000
  0.428571  0.428571  0.000000      4.000000
  0.000000  0.000000  0.142857      2.000000
  0.142857  0.000000  0.142857      8.000000
  0.285714  0.000000  0.142857      8.000000
  0.428571  0.000000  0.142857      8.000000
  0.142857  0.142857  0.142857      8.000000
  0.285714  0.142857  0.142857     16.000000
  0.428571  0.142857  0.142857     16.000000
  0.285714  0.285714  0.142857      8.000000
  0.428571  0.285714  0.142857     16.000000
  0.428571  0.428571  0.142857      8.000000
  0.000000  0.000000  0.285714      2.000000
  0.142857  0.000000  0.285714      8.000000
  0.285714  0.000000  0.285714      8.000000
  0.428571  0.000000  0.285714      8.000000
  0.142857  0.142857  0.285714      8.000000
  0.285714  0.142857  0.285714     16.000000
  0.428571  0.142857  0.285714     16.000000
  0.285714  0.285714  0.285714      8.000000
  0.428571  0.285714  0.285714     16.000000
  0.428571  0.428571  0.285714      8.000000
  0.000000  0.000000  0.428571      2.000000
  0.142857  0.000000  0.428571      8.000000
  0.285714  0.000000  0.428571      8.000000
  0.428571  0.000000  0.428571      8.000000
  0.142857  0.142857  0.428571      8.000000
  0.285714  0.142857  0.428571     16.000000
  0.428571  0.142857  0.428571     16.000000
  0.285714  0.285714  0.428571      8.000000
  0.428571  0.285714  0.428571     16.000000
  0.428571  0.428571  0.428571      8.000000
 
 Following cartesian coordinates:
            Coordinates               Weight
  0.000000  0.000000  0.000000      1.000000
  0.138088  0.000000  0.000000      4.000000
  0.276176  0.000000  0.000000      4.000000
  0.414264  0.000000  0.000000      4.000000
  0.138088  0.138088  0.000000      4.000000
  0.276176  0.138088  0.000000      8.000000
  0.414264  0.138088  0.000000      8.000000
  0.276176  0.276176  0.000000      4.000000
  0.414264  0.276176  0.000000      8.000000
  0.414264  0.414264  0.000000      4.000000
  0.000000  0.000000  0.138088      2.000000
  0.138088  0.000000  0.138088      8.000000
  0.276176  0.000000  0.138088      8.000000
  0.414264  0.000000  0.138088      8.000000
  0.138088  0.138088  0.138088      8.000000
  0.276176  0.138088  0.138088     16.000000
  0.414264  0.138088  0.138088     16.000000
  0.276176  0.276176  0.138088      8.000000
  0.414264  0.276176  0.138088     16.000000
  0.414264  0.414264  0.138088      8.000000
  0.000000  0.000000  0.276176      2.000000
  0.138088  0.000000  0.276176      8.000000
  0.276176  0.000000  0.276176      8.000000
  0.414264  0.000000  0.276176      8.000000
  0.138088  0.138088  0.276176      8.000000
  0.276176  0.138088  0.276176     16.000000
  0.414264  0.138088  0.276176     16.000000
  0.276176  0.276176  0.276176      8.000000
  0.414264  0.276176  0.276176     16.000000
  0.414264  0.414264  0.276176      8.000000
  0.000000  0.000000  0.414264      2.000000
  0.138088  0.000000  0.414264      8.000000
  0.276176  0.000000  0.414264      8.000000
  0.414264  0.000000  0.414264      8.000000
  0.138088  0.138088  0.414264      8.000000
  0.276176  0.138088  0.414264     16.000000
  0.414264  0.138088  0.414264     16.000000
  0.276176  0.276176  0.414264      8.000000
  0.414264  0.276176  0.414264     16.000000
  0.414264  0.414264  0.414264      8.000000
 


--------------------------------------------------------------------------------------------------------




 Dimension of arrays:
   k-points           NKPTS =     40   k-points in BZ     NKDIM =     40   number of bands    NBANDS=     84
   number of dos      NEDOS =    301   number of ions     NIONS =     16
   non local maximal  LDIM  =      6   non local SUM 2l+1 LMDIM =     18
   total plane-waves  NPLWV =  46656
   max r-space proj   IRMAX =   4047   max aug-charges    IRDMAX=  25071
   dimension x,y,z NGX =    36 NGY =   36 NGZ =   36
   dimension x,y,z NGXF=    72 NGYF=   72 NGZF=   72
   support grid    NGXF=    72 NGYF=   72 NGZF=   72
   ions per type =               8   6   2
   NGX,Y,Z   is equivalent  to a cutoff of  10.04, 10.04, 10.04 a.u.
   NGXF,Y,Z  is equivalent  to a cutoff of  20.09, 20.09, 20.09 a.u.

 SYSTEM =  Testrun for NiMnIn                      
 POSCAR =  Ni2MnIn                                 

 Startparameter for this run:
   NWRITE =      2    write-flag & timer
   PREC   = normal    normal or accurate (medium, high low for compatibility)
   ISTART =      0    job   : 0-new  1-cont  2-samecut
   ICHARG =      2    charge: 1-file 2-atom 10-const
   ISPIN  =      2    spin polarized calculation?
   LNONCOLLINEAR =      F non collinear calculations
   LSORBIT =      F    spin-orbit coupling
   INIWAV =      1    electr: 0-lowe 1-rand  2-diag
   LASPH  =      F    aspherical Exc in radial PAW
   METAGGA=      F    non-selfconsistent MetaGGA calc.

 Electronic Relaxation 1
   ENCUT  =  550.0 eV  40.42 Ry    6.36 a.u.  11.39 11.39 11.39*2*pi/ulx,y,z
   ENINI  =  550.0     initial cutoff
   ENAUG  =  544.6 eV  augmentation charge cutoff
   NELM   =     60;   NELMIN=  2; NELMDL= -5     # of ELM steps 
   EDIFF  = 0.1E-04   stopping-criterion for ELM
   LREAL  =      T    real-space projection
   NLSPLINE    = F    spline interpolate recip. space projectors
   LCOMPAT=      F    compatible to vasp.4.4
   GGA_COMPAT  = T    GGA compatible to vasp.4.4-vasp.4.6
   LMAXPAW     = -100 max onsite density
   LMAXMIX     =    2 max onsite mixed and CHGCAR
   VOSKOWN=      0    Vosko Wilk Nusair interpolation
   ROPT   =   -0.00050  -0.00050  -0.00050
 Ionic relaxation
   EDIFFG = -.1E-01   stopping-criterion for IOM
   NSW    =   1000    number of steps for IOM
   NBLOCK =      1;   KBLOCK =   1000    inner block; outer block 
   IBRION =      2    ionic relax: 0-MD 1-quasi-New 2-CG
   NFREE  =      1    steps in history (QN), initial steepest desc. (CG)
   ISIF   =      2    stress and relaxation
   IWAVPR =     11    prediction:  0-non 1-charg 2-wave 3-comb
   ISYM   =      2    0-nonsym 1-usesym 2-fastsym
   LCORR  =      T    Harris-Foulkes like correction to forces

   POTIM  = 0.5000    time-step for ionic-motion
   TEIN   =    0.0    initial temperature
   TEBEG  =    0.0;   TEEND  =   0.0 temperature during run
   SMASS  =  -3.00    Nose mass-parameter (am)
   estimated Nose-frequenzy (Omega)   =  0.10E-29 period in steps =****** mass=  -0.811E-27a.u.
   SCALEE = 1.0000    scale energy and forces
   NPACO  =    256;   APACO  = 16.0  distance and # of slots for P.C.
   PSTRESS=    0.0 pullay stress

  Mass of Ions in am
   POMASS =  58.69 54.94114.82
  Ionic Valenz
   ZVAL   =  10.00  7.00  3.00
  Atomic Wigner-Seitz radii
   RWIGS  =  -1.00 -1.00 -1.00
  virtual crystal weights 
   VCA    =   1.00  1.00  1.00
   NELECT =     128.0000    total number of electrons
   NUPDOWN=      -1.0000    fix difference up-down

 DOS related values:
   EMIN   =  10.00;   EMAX   =-10.00  energy-range for DOS
   EFERMI =   0.00
   ISMEAR =     0;   SIGMA  =   0.02  broadening in eV -4-tet -1-fermi 0-gaus

 Electronic relaxation 2 (details)
   IALGO  =     68    algorithm
   LDIAG  =      T    sub-space diagonalisation (order eigenvalues)
   LSUBROT=      F    optimize rotation matrix (better conditioning)
   TURBO    =      0    0=normal 1=particle mesh
   IRESTART =      0    0=no restart 2=restart with 2 vectors
   NREBOOT  =      0    no. of reboots
   NMIN     =      0    reboot dimension
   EREF     =   0.00    reference energy to select bands
   IMIX   =      4    mixing-type and parameters
     AMIX     =   0.40;   BMIX     =  1.00
     AMIX_MAG =   1.60;   BMIX_MAG =  1.00
     AMIN     =   0.10
     WC   =   100.;   INIMIX=   1;  MIXPRE=   1;  MAXMIX= -45

 Intra band minimization:
   WEIMIN = 0.0010     energy-eigenvalue tresh-hold
   EBREAK =  0.30E-07  absolut break condition
   DEPER  =   0.30     relativ break condition  

   TIME   =   0.40     timestep for ELM

  volume/ion in A,a.u.               =      13.22        89.24
  Fermi-wavevector in a.u.,A,eV,Ry     =   1.384554  2.616427 26.082217  1.916989
  Thomas-Fermi vector in A             =   2.509047

 Write flags
   LWAVE        =      F    write WAVECAR
   LDOWNSAMPLE  =      F    k-point downsampling of WAVECAR
   LCHARG       =      T    write CHGCAR
   LVTOT        =      F    write LOCPOT, total local potential
   LVHAR        =      F    write LOCPOT, Hartree potential only
   LELF         =      F    write electronic localiz. function (ELF)
   LORBIT       =     11    0 simple, 1 ext, 2 COOP (PROOUT), +10 PAW based schemes


 Dipole corrections
   LMONO  =      F    monopole corrections only (constant potential shift)
   LDIPOL =      F    correct potential (dipole corrections)
   IDIPOL =      0    1-x, 2-y, 3-z, 4-all directions 
   EPSILON=  1.0000000 bulk dielectric constant

 Exchange correlation treatment:
   GGA     =    --    GGA type
   LEXCH   =     8    internal setting for exchange type
   VOSKOWN=      0    Vosko Wilk Nusair interpolation
   LHFCALC =     F    Hartree Fock is set to
   LHFONE  =     F    Hartree Fock one center treatment
   AEXX    =    0.0000 exact exchange contribution

 Linear response parameters
   LEPSILON=     F    determine dielectric tensor
   LRPA    =     F    only Hartree local field effects (RPA)
   LNABLA  =     F    use nabla operator in PAW spheres
   LVEL    =     F    velocity operator in full k-point grid
   LINTERFAST=   F  fast interpolation
   KINTER  =     0    interpolate to denser k-point grid
   CSHIFT  =0.1000    complex shift for real part using Kramers Kronig
   OMEGAMAX=  -1.0    maximum frequency
   DEG_THRESHOLD= 0.2000000E-02 threshold for treating states as degnerate
   RTIME   =   -0.100 relaxation time in fs
  (WPLASMAI=    0.000 imaginary part of plasma frequency in eV, 0.658/RTIME)
   DFIELD  = 0.0000000 0.0000000 0.0000000 field for delta impulse in time

 Orbital magnetization related:
   ORBITALMAG=     F  switch on orbital magnetization
   LCHIMAG   =     F  perturbation theory with respect to B field
   DQ        =  0.001000  dq finite difference perturbation B field
   LLRAUG    =     F  two centre corrections for induced B field



--------------------------------------------------------------------------------------------------------


 conjugate gradient relaxation of ions
 charge density and potential will be updated during run
 spin polarized calculation
 RMM-DIIS sequential band-by-band and
  variant of blocked Davidson during initial phase
 perform sub-space diagonalisation
    before iterative eigenvector-optimisation
 modified Broyden-mixing scheme, WC =      100.0
 initial mixing is a Kerker type mixing with AMIX =  0.4000 and BMIX =      1.0000
 Hartree-type preconditioning will be used
 using additional bands           20
 real space projection scheme for non local part
 use partial core corrections
 calculate Harris-corrections to forces   (improved forces if not selfconsistent)
 use gradient corrections 
 use of overlap-Matrix (Vanderbilt PP)
 Gauss-broadening in eV      SIGMA  =   0.02


--------------------------------------------------------------------------------------------------------


  energy-cutoff  :      550.00
  volume of cell :      211.59
      direct lattice vectors                 reciprocal lattice vectors
     5.958931059  0.000000000  0.000000000     0.167815333  0.000000000  0.000000000
     0.000000000  5.958931059  0.000000000     0.000000000  0.167815333  0.000000000
     0.000000000  0.000000000  5.958931059     0.000000000  0.000000000  0.167815333

  length of vectors
     5.958931059  5.958931059  5.958931059     0.167815333  0.167815333  0.167815333



 k-points in units of 2pi/SCALE and weight: k-points                                
   0.00000000  0.00000000  0.00000000       0.003
   0.13808805  0.00000000  0.00000000       0.012
   0.27617609  0.00000000  0.00000000       0.012
   0.41426414  0.00000000  0.00000000       0.012
   0.13808805  0.13808805  0.00000000       0.012
   0.27617609  0.13808805  0.00000000       0.023
   0.41426414  0.13808805  0.00000000       0.023
   0.27617609  0.27617609  0.00000000       0.012
   0.41426414  0.27617609  0.00000000       0.023
   0.41426414  0.41426414  0.00000000       0.012
   0.00000000  0.00000000  0.13808805       0.006
   0.13808805  0.00000000  0.13808805       0.023
   0.27617609  0.00000000  0.13808805       0.023
   0.41426414  0.00000000  0.13808805       0.023
   0.13808805  0.13808805  0.13808805       0.023
   0.27617609  0.13808805  0.13808805       0.047
   0.41426414  0.13808805  0.13808805       0.047
   0.27617609  0.27617609  0.13808805       0.023
   0.41426414  0.27617609  0.13808805       0.047
   0.41426414  0.41426414  0.13808805       0.023
   0.00000000  0.00000000  0.27617609       0.006
   0.13808805  0.00000000  0.27617609       0.023
   0.27617609  0.00000000  0.27617609       0.023
   0.41426414  0.00000000  0.27617609       0.023
   0.13808805  0.13808805  0.27617609       0.023
   0.27617609  0.13808805  0.27617609       0.047
   0.41426414  0.13808805  0.27617609       0.047
   0.27617609  0.27617609  0.27617609       0.023
   0.41426414  0.27617609  0.27617609       0.047
   0.41426414  0.41426414  0.27617609       0.023
   0.00000000  0.00000000  0.41426414       0.006
   0.13808805  0.00000000  0.41426414       0.023
   0.27617609  0.00000000  0.41426414       0.023
   0.41426414  0.00000000  0.41426414       0.023
   0.13808805  0.13808805  0.41426414       0.023
   0.27617609  0.13808805  0.41426414       0.047
   0.41426414  0.13808805  0.41426414       0.047
   0.27617609  0.27617609  0.41426414       0.023
   0.41426414  0.27617609  0.41426414       0.047
   0.41426414  0.41426414  0.41426414       0.023

 k-points in reciprocal lattice and weights: k-points                                
   0.00000000  0.00000000  0.00000000       0.003
   0.14285714  0.00000000  0.00000000       0.012
   0.28571429  0.00000000  0.00000000       0.012
   0.42857143  0.00000000  0.00000000       0.012
   0.14285714  0.14285714  0.00000000       0.012
   0.28571429  0.14285714  0.00000000       0.023
   0.42857143  0.14285714  0.00000000       0.023
   0.28571429  0.28571429  0.00000000       0.012
   0.42857143  0.28571429  0.00000000       0.023
   0.42857143  0.42857143  0.00000000       0.012
   0.00000000  0.00000000  0.14285714       0.006
   0.14285714  0.00000000  0.14285714       0.023
   0.28571429  0.00000000  0.14285714       0.023
   0.42857143  0.00000000  0.14285714       0.023
   0.14285714  0.14285714  0.14285714       0.023
   0.28571429  0.14285714  0.14285714       0.047
   0.42857143  0.14285714  0.14285714       0.047
   0.28571429  0.28571429  0.14285714       0.023
   0.42857143  0.28571429  0.14285714       0.047
   0.42857143  0.42857143  0.14285714       0.023
   0.00000000  0.00000000  0.28571429       0.006
   0.14285714  0.00000000  0.28571429       0.023
   0.28571429  0.00000000  0.28571429       0.023
   0.42857143  0.00000000  0.28571429       0.023
   0.14285714  0.14285714  0.28571429       0.023
   0.28571429  0.14285714  0.28571429       0.047
   0.42857143  0.14285714  0.28571429       0.047
   0.28571429  0.28571429  0.28571429       0.023
   0.42857143  0.28571429  0.28571429       0.047
   0.42857143  0.42857143  0.28571429       0.023
   0.00000000  0.00000000  0.42857143       0.006
   0.14285714  0.00000000  0.42857143       0.023
   0.28571429  0.00000000  0.42857143       0.023
   0.42857143  0.00000000  0.42857143       0.023
   0.14285714  0.14285714  0.42857143       0.023
   0.28571429  0.14285714  0.42857143       0.047
   0.42857143  0.14285714  0.42857143       0.047
   0.28571429  0.28571429  0.42857143       0.023
   0.42857143  0.28571429  0.42857143       0.047
   0.42857143  0.42857143  0.42857143       0.023

 position of ions in fractional coordinates (direct lattice) 
   0.25000000  0.25000000  0.27012885
   0.75000000  0.25000000  0.27012885
   0.25000000  0.75000000  0.27012885
   0.75000000  0.75000000  0.27012885
   0.25000000  0.25000000  0.72987115
   0.75000000  0.25000000  0.72987115
   0.25000000  0.75000000  0.72987115
   0.75000000  0.75000000  0.72987115
   0.50000000  0.00000000  0.00000000
   0.00000000  0.50000000  0.00000000
   0.00000000  0.00000000  0.50000000
   0.50000000  0.00000000  0.50000000
   0.50000000  0.50000000  0.50000000
   0.00000000  0.50000000  0.50000000
   0.00000000  0.00000000  0.00000000
   0.50000000  0.50000000  0.00000000

 position of ions in cartesian coordinates  (Angst):
   1.48973276  1.48973276  1.60967920
   4.46919829  1.48973276  1.60967920
   1.48973276  4.46919829  1.60967920
   4.46919829  4.46919829  1.60967920
   1.48973276  1.48973276  4.34925186
   4.46919829  1.48973276  4.34925186
   1.48973276  4.46919829  4.34925186
   4.46919829  4.46919829  4.34925186
   2.97946553  0.00000000  0.00000000
   0.00000000  2.97946553  0.00000000
   0.00000000  0.00000000  2.97946553
   2.97946553  0.00000000  2.97946553
   2.97946553  2.97946553  2.97946553
   0.00000000  2.97946553  2.97946553
   0.00000000  0.00000000  0.00000000
   2.97946553  2.97946553  0.00000000



--------------------------------------------------------------------------------------------------------


 k-point  1 :   0.0000 0.0000 0.0000  plane waves:    6187
 k-point  2 :   0.1429 0.0000 0.0000  plane waves:    6195
 k-point  3 :   0.2857 0.0000 0.0000  plane waves:    6195
 k-point  4 :   0.4286 0.0000 0.0000  plane waves:    6202
 k-point  5 :   0.1429 0.1429 0.0000  plane waves:    6204
 k-point  6 :   0.2857 0.1429 0.0000  plane waves:    6222
 k-point  7 :   0.4286 0.1429 0.0000  plane waves:    6199
 k-point  8 :   0.2857 0.2857 0.0000  plane waves:    6202
 k-point  9 :   0.4286 0.2857 0.0000  plane waves:    6196
 k-point 10 :   0.4286 0.4286 0.0000  plane waves:    6200
 k-point 11 :   0.0000 0.0000 0.1429  plane waves:    6195
 k-point 12 :   0.1429 0.0000 0.1429  plane waves:    6204
 k-point 13 :   0.2857 0.0000 0.1429  plane waves:    6222
 k-point 14 :   0.4286 0.0000 0.1429  plane waves:    6199
 k-point 15 :   0.1429 0.1429 0.1429  plane waves:    6193
 k-point 16 :   0.2857 0.1429 0.1429  plane waves:    6206
 k-point 17 :   0.4286 0.1429 0.1429  plane waves:    6208
 k-point 18 :   0.2857 0.2857 0.1429  plane waves:    6190
 k-point 19 :   0.4286 0.2857 0.1429  plane waves:    6194
 k-point 20 :   0.4286 0.4286 0.1429  plane waves:    6213
 k-point 21 :   0.0000 0.0000 0.2857  plane waves:    6195
 k-point 22 :   0.1429 0.0000 0.2857  plane waves:    6222
 k-point 23 :   0.2857 0.0000 0.2857  plane waves:    6202
 k-point 24 :   0.4286 0.0000 0.2857  plane waves:    6196
 k-point 25 :   0.1429 0.1429 0.2857  plane waves:    6206
 k-point 26 :   0.2857 0.1429 0.2857  plane waves:    6190
 k-point 27 :   0.4286 0.1429 0.2857  plane waves:    6194
 k-point 28 :   0.2857 0.2857 0.2857  plane waves:    6211
 k-point 29 :   0.4286 0.2857 0.2857  plane waves:    6196
 k-point 30 :   0.4286 0.4286 0.2857  plane waves:    6178
 k-point 31 :   0.0000 0.0000 0.4286  plane waves:    6202
 k-point 32 :   0.1429 0.0000 0.4286  plane waves:    6199
 k-point 33 :   0.2857 0.0000 0.4286  plane waves:    6196
 k-point 34 :   0.4286 0.0000 0.4286  plane waves:    6200
 k-point 35 :   0.1429 0.1429 0.4286  plane waves:    6208
 k-point 36 :   0.2857 0.1429 0.4286  plane waves:    6194
 k-point 37 :   0.4286 0.1429 0.4286  plane waves:    6213
 k-point 38 :   0.2857 0.2857 0.4286  plane waves:    6196
 k-point 39 :   0.4286 0.2857 0.4286  plane waves:    6178
 k-point 40 :   0.4286 0.4286 0.4286  plane waves:    6149

 maximum and minimum number of plane-waves per node :      6222     6149

 maximum number of plane-waves:      6222
 maximum index in each direction: 
   IXMAX=   11   IYMAX=   11   IZMAX=   11
   IXMIN=  -11   IYMIN=  -11   IZMIN=  -11


 serial   3D FFT for wavefunctions
 parallel 3D FFT for charge:
    minimum data exchange during FFTs selected (reduces bandwidth)


 total amount of memory used by VASP MPI-rank0   103512. kBytes
=======================================================================

   base      :      30000. kBytes
   nonlr-proj:       6790. kBytes
   fftplans  :       1269. kBytes
   grid      :       6573. kBytes
   one-center:        497. kBytes
   wavefun   :      58383. kBytes

     INWAV:  cpu time    0.0000: real time    0.0002
 Broyden mixing: mesh for mixing (old mesh)
   NGX = 23   NGY = 23   NGZ = 23
  (NGX  = 72   NGY  = 72   NGZ  = 72)
  gives a total of  12167 points

 initial charge density was supplied:
 charge density of overlapping atoms calculated
 number of electron     128.0000000 magnetization       8.8000000
 keeping initial charge density in first step


--------------------------------------------------------------------------------------------------------


 Maximum index for non-local projection operator         3887
 Maximum index for augmentation-charges         2111 (set IRDMAX)


--------------------------------------------------------------------------------------------------------


 First call to EWALD:  gamma=   0.297
 Maximum number of real-space cells 3x 3x 3
 Maximum number of reciprocal cells 3x 3x 3

    FEWALD:  cpu time    0.0020: real time    0.0020


--------------------------------------- Iteration      1(   1)  ---------------------------------------


    POTLOK:  cpu time    0.0995: real time    0.1058
    SETDIJ:  cpu time    0.0350: real time    0.0351
     EDDAV:  cpu time   23.3893: real time   23.4123
       DOS:  cpu time    0.0036: real time    0.0036
    --------------------------------------------
      LOOP:  cpu time   23.5275: real time   23.5569

 eigenvalue-minimisations  : 13440
 total energy-change (2. order) : 0.1066227E+04  (-0.5421431E+04)
 number of electron     128.0000000 magnetization       8.8000000
 augmentation part      128.0000000 magnetization       8.8000000

 Free energy of the ion-electron system (eV)
  ---------------------------------------------------
  alpha Z        PSCENC =       531.79258097
  Ewald energy   TEWEN  =     -9272.77343122
  -Hartree energ DENC   =     -3154.40181558
  -exchange      EXHF   =         0.00000000
  -V(xc)+E(xc)   XCENC  =        78.43452448
  PAW double counting   =     10320.96726947   -10647.99417394
  entropy T*S    EENTRO =        -0.00134324
  eigenvalues    EBANDS =      1980.74117312
  atomic energy  EATOM  =     11229.46195210
  Solvation  Ediel_sol  =         0.00000000
  ---------------------------------------------------
  free energy    TOTEN  =      1066.22673615 eV

  energy without entropy =     1066.22807939  energy(sigma->0) =     1066.22740777


--------------------------------------------------------------------------------------------------------




--------------------------------------- Iteration      1(   2)  ---------------------------------------


     EDDAV:  cpu time   23.3240: real time   23.3486
       DOS:  cpu time    0.0035: real time    0.0035
    --------------------------------------------
      LOOP:  cpu time   23.3275: real time   23.3521

 eigenvalue-minimisations  : 13440
 total energy-change (2. order) :-0.1064900E+04  (-0.1031638E+04)
 number of electron     128.0000000 magnetization       8.8000000
 augmentation part      128.0000000 magnetization       8.8000000

 Free energy of the ion-electron system (eV)
  ---------------------------------------------------
  alpha Z        PSCENC =       531.79258097
  Ewald energy   TEWEN  =     -9272.77343122
  -Hartree energ DENC   =     -3154.40181558
  -exchange      EXHF   =         0.00000000
  -V(xc)+E(xc)   XCENC  =        78.43452448
  PAW double counting   =     10320.96726947   -10647.99417394
  entropy T*S    EENTRO =        -0.00246940
  eigenvalues    EBANDS =       915.84254776
  atomic energy  EATOM  =     11229.46195210
  Solvation  Ediel_sol  =         0.00000000
  ---------------------------------------------------
  free energy    TOTEN  =         1.32698463 eV

  energy without entropy =        1.32945403  energy(sigma->0) =        1.32821933


--------------------------------------------------------------------------------------------------------




--------------------------------------- Iteration      1(   3)  ---------------------------------------


     EDDAV:  cpu time   25.4733: real time   25.4972
       DOS:  cpu time    0.0037: real time    0.0037
    --------------------------------------------
      LOOP:  cpu time   25.4770: real time   25.5009

 eigenvalue-minimisations  : 14988
 total energy-change (2. order) :-0.1108764E+03  (-0.9947640E+02)
 number of electron     128.0000000 magnetization       8.8000000
 augmentation part      128.0000000 magnetization       8.8000000

 Free energy of the ion-electron system (eV)
  ---------------------------------------------------
  alpha Z        PSCENC =       531.79258097
  Ewald energy   TEWEN  =     -9272.77343122
  -Hartree energ DENC   =     -3154.40181558
  -exchange      EXHF   =         0.00000000
  -V(xc)+E(xc)   XCENC  =        78.43452448
  PAW double counting   =     10320.96726947   -10647.99417394
  entropy T*S    EENTRO =        -0.00237455
  eigenvalues    EBANDS =       804.96606295
  atomic energy  EATOM  =     11229.46195210
  Solvation  Ediel_sol  =         0.00000000
  ---------------------------------------------------
  free energy    TOTEN  =      -109.54940532 eV

  energy without entropy =     -109.54703078  energy(sigma->0) =     -109.54821805


--------------------------------------------------------------------------------------------------------




--------------------------------------- Iteration      1(   4)  ---------------------------------------


     EDDAV:  cpu time   32.6622: real time   32.6937
       DOS:  cpu time    0.0037: real time    0.0038
    --------------------------------------------
      LOOP:  cpu time   32.6660: real time   32.6975

 eigenvalue-minimisations  : 20220
 total energy-change (2. order) :-0.6826154E+01  (-0.6455817E+01)
 number of electron     128.0000000 magnetization       8.8000000
 augmentation part      128.0000000 magnetization       8.8000000

 Free energy of the ion-electron system (eV)
  ---------------------------------------------------
  alpha Z        PSCENC =       531.79258097
  Ewald energy   TEWEN  =     -9272.77343122
  -Hartree energ DENC   =     -3154.40181558
  -exchange      EXHF   =         0.00000000
  -V(xc)+E(xc)   XCENC  =        78.43452448
  PAW double counting   =     10320.96726947   -10647.99417394
  entropy T*S    EENTRO =        -0.00281945
  eigenvalues    EBANDS =       798.14035394
  atomic energy  EATOM  =     11229.46195210
  Solvation  Ediel_sol  =         0.00000000
  ---------------------------------------------------
  free energy    TOTEN  =      -116.37555923 eV

  energy without entropy =     -116.37273979  energy(sigma->0) =     -116.37414951


--------------------------------------------------------------------------------------------------------




--------------------------------------- Iteration      1(   5)  ---------------------------------------


     EDDAV:  cpu time   31.5670: real time   31.5964
       DOS:  cpu time    0.0037: real time    0.0037
    CHARGE:  cpu time    0.7200: real time    0.7206
    MIXING:  cpu time    0.0016: real time    0.0016
    --------------------------------------------
      LOOP:  cpu time   32.2923: real time   32.3223

 eigenvalue-minimisations  : 19536
 total energy-change (2. order) :-0.2308452E+00  (-0.2296463E+00)
 number of electron     128.0000009 magnetization       6.2025130
 augmentation part       60.6175947 magnetization       4.2710949

 Broyden mixing:
  rms(total) = 0.34493E+01    rms(broyden)= 0.34492E+01
  rms(prec ) = 0.52938E+01
  weight for this iteration     100.00

 Free energy of the ion-electron system (eV)
  ---------------------------------------------------
  alpha Z        PSCENC =       531.79258097
  Ewald energy   TEWEN  =     -9272.77343122
  -Hartree energ DENC   =     -3154.40181558
  -exchange      EXHF   =         0.00000000
  -V(xc)+E(xc)   XCENC  =        78.43452448
  PAW double counting   =     10320.96726947   -10647.99417394
  entropy T*S    EENTRO =        -0.00274977
  eigenvalues    EBANDS =       797.90943909
  atomic energy  EATOM  =     11229.46195210
  Solvation  Ediel_sol  =         0.00000000
  ---------------------------------------------------
  free energy    TOTEN  =      -116.60640441 eV

  energy without entropy =     -116.60365464  energy(sigma->0) =     -116.60502953


--------------------------------------------------------------------------------------------------------




--------------------------------------- Iteration      1(   6)  ---------------------------------------


    POTLOK:  cpu time    0.0969: real time    0.1092
    SETDIJ:  cpu time    0.0356: real time    0.0356
    EDDIAG:  cpu time    3.2320: real time    3.2353
  RMM-DIIS:  cpu time   10.5028: real time   10.5127
    ORTHCH:  cpu time    0.6244: real time    0.6249
       DOS:  cpu time    0.0038: real time    0.0039
    CHARGE:  cpu time    0.7340: real time    0.7345
    MIXING:  cpu time    0.0017: real time    0.0017
    --------------------------------------------
      LOOP:  cpu time   15.2312: real time   15.2578

 eigenvalue-minimisations  : 13440
 total energy-change (2. order) : 0.7969625E+01  (-0.1571086E+02)
 number of electron     128.0000069 magnetization       6.8483894
 augmentation part       69.7803284 magnetization       5.0206065

 Broyden mixing:
  rms(total) = 0.42936E+01    rms(broyden)= 0.42935E+01
  rms(prec ) = 0.54151E+01
  weight for this iteration     100.00

 eigenvalues of (default mixing * dielectric matrix)
  average eigenvalue GAMMA=   0.2249
  0.2249

 Free energy of the ion-electron system (eV)
  ---------------------------------------------------
  alpha Z        PSCENC =       531.79258097
  Ewald energy   TEWEN  =     -9272.77343122
  -Hartree energ DENC   =     -2918.01719798
  -exchange      EXHF   =         0.00000000
  -V(xc)+E(xc)   XCENC  =        66.35372127
  PAW double counting   =     11123.33462826   -11416.00393225
  entropy T*S    EENTRO =        -0.00658032
  eigenvalues    EBANDS =       547.22147932
  atomic energy  EATOM  =     11229.46195210
  Solvation  Ediel_sol  =         0.00000000
  ---------------------------------------------------
  free energy    TOTEN  =      -108.63677985 eV

  energy without entropy =     -108.63019954  energy(sigma->0) =     -108.63348970


--------------------------------------------------------------------------------------------------------




--------------------------------------- Iteration      1(   7)  ---------------------------------------


    POTLOK:  cpu time    0.1100: real time    0.1102
    SETDIJ:  cpu time    0.0357: real time    0.0357
    EDDIAG:  cpu time    3.2467: real time    3.2496
  RMM-DIIS:  cpu time   10.6091: real time   10.6219
    ORTHCH:  cpu time    0.6270: real time    0.6275
       DOS:  cpu time    0.0038: real time    0.0038
    CHARGE:  cpu time    0.7246: real time    0.7254
    MIXING:  cpu time    0.0016: real time    0.0017
    --------------------------------------------
      LOOP:  cpu time   15.3584: real time   15.3758

 eigenvalue-minimisations  : 13539
 total energy-change (2. order) : 0.2670934E+00  (-0.2173342E+01)
 number of electron     128.0000004 magnetization       6.7010685
 augmentation part       69.9133790 magnetization       4.7213972

 Broyden mixing:
  rms(total) = 0.29950E+01    rms(broyden)= 0.29949E+01
  rms(prec ) = 0.49903E+01
  weight for this iteration     100.00

 eigenvalues of (default mixing * dielectric matrix)
  average eigenvalue GAMMA=   0.4798
  0.4798  0.4798

 Free energy of the ion-electron system (eV)
  ---------------------------------------------------
  alpha Z        PSCENC =       531.79258097
  Ewald energy   TEWEN  =     -9272.77343122
  -Hartree energ DENC   =     -2917.96610491
  -exchange      EXHF   =         0.00000000
  -V(xc)+E(xc)   XCENC  =        68.63127786
  PAW double counting   =     11455.57937798   -11757.92890501
  entropy T*S    EENTRO =        -0.00262409
  eigenvalues    EBANDS =       554.83618989
  atomic energy  EATOM  =     11229.46195210
  Solvation  Ediel_sol  =         0.00000000
  ---------------------------------------------------
  free energy    TOTEN  =      -108.36968644 eV

  energy without entropy =     -108.36706235  energy(sigma->0) =     -108.36837440


--------------------------------------------------------------------------------------------------------




--------------------------------------- Iteration      1(   8)  ---------------------------------------


    POTLOK:  cpu time    0.0968: real time    0.0969
    SETDIJ:  cpu time    0.0357: real time    0.0357
    EDDIAG:  cpu time    3.2795: real time    3.2843
  RMM-DIIS:  cpu time   10.5641: real time   10.5786
    ORTHCH:  cpu time    0.6256: real time    0.6262
       DOS:  cpu time    0.0035: real time    0.0036
    CHARGE:  cpu time    0.7328: real time    0.7336
    MIXING:  cpu time    0.0018: real time    0.0018
    --------------------------------------------
      LOOP:  cpu time   15.3397: real time   15.3607

 eigenvalue-minimisations  : 13445
 total energy-change (2. order) : 0.2549292E+01  (-0.2004629E+01)
 number of electron     128.0000065 magnetization       6.7661701
 augmentation part       67.4366620 magnetization       5.4805046

 Broyden mixing:
  rms(total) = 0.21596E+01    rms(broyden)= 0.21594E+01
  rms(prec ) = 0.38197E+01
  weight for this iteration     100.00

 eigenvalues of (default mixing * dielectric matrix)
  average eigenvalue GAMMA=   0.5029
  0.7854  0.5320  0.1912

 Free energy of the ion-electron system (eV)
  ---------------------------------------------------
  alpha Z        PSCENC =       531.79258097
  Ewald energy   TEWEN  =     -9272.77343122
  -Hartree energ DENC   =     -2971.19526511
  -exchange      EXHF   =         0.00000000
  -V(xc)+E(xc)   XCENC  =        72.49632506
  PAW double counting   =     11827.45909130   -12153.96423738
  entropy T*S    EENTRO =        -0.00424611
  eigenvalues    EBANDS =       630.90683587
  atomic energy  EATOM  =     11229.46195210
  Solvation  Ediel_sol  =         0.00000000
  ---------------------------------------------------
  free energy    TOTEN  =      -105.82039453 eV

  energy without entropy =     -105.81614841  energy(sigma->0) =     -105.81827147


--------------------------------------------------------------------------------------------------------




--------------------------------------- Iteration      1(   9)  ---------------------------------------


    POTLOK:  cpu time    0.0974: real time    0.0975
    SETDIJ:  cpu time    0.0359: real time    0.0360
    EDDIAG:  cpu time    3.2981: real time    3.3021
  RMM-DIIS:  cpu time   10.8966: real time   10.9111
    ORTHCH:  cpu time    0.6256: real time    0.6264
       DOS:  cpu time    0.0037: real time    0.0038
    CHARGE:  cpu time    0.7328: real time    0.7335
    MIXING:  cpu time    0.0018: real time    0.0018
    --------------------------------------------
      LOOP:  cpu time   15.6921: real time   15.7122

 eigenvalue-minimisations  : 13834
 total energy-change (2. order) : 0.2507128E+01  (-0.2549993E+00)
 number of electron     128.0000045 magnetization       7.5727858
 augmentation part       67.3456956 magnetization       5.5962467

 Broyden mixing:
  rms(total) = 0.93303E+00    rms(broyden)= 0.93299E+00
  rms(prec ) = 0.11538E+01
  weight for this iteration     100.00

 eigenvalues of (default mixing * dielectric matrix)
  average eigenvalue GAMMA=   0.5519
  0.9587  0.5802  0.4858  0.1831

 Free energy of the ion-electron system (eV)
  ---------------------------------------------------
  alpha Z        PSCENC =       531.79258097
  Ewald energy   TEWEN  =     -9272.77343122
  -Hartree energ DENC   =     -2968.43617419
  -exchange      EXHF   =         0.00000000
  -V(xc)+E(xc)   XCENC  =        72.90550313
  PAW double counting   =     12116.17675534   -12448.95957541
  entropy T*S    EENTRO =        -0.00263501
  eigenvalues    EBANDS =       636.52175802
  atomic energy  EATOM  =     11229.46195210
  Solvation  Ediel_sol  =         0.00000000
  ---------------------------------------------------
  free energy    TOTEN  =      -103.31326626 eV

  energy without entropy =     -103.31063125  energy(sigma->0) =     -103.31194875


--------------------------------------------------------------------------------------------------------




--------------------------------------- Iteration      1(  10)  ---------------------------------------


    POTLOK:  cpu time    0.1036: real time    0.1043
    SETDIJ:  cpu time    0.0370: real time    0.0370
    EDDIAG:  cpu time    3.3044: real time    3.3080
  RMM-DIIS:  cpu time   10.6074: real time   10.6215
    ORTHCH:  cpu time    0.6249: real time    0.6255
       DOS:  cpu time    0.0037: real time    0.0039
    CHARGE:  cpu time    0.7224: real time    0.7230
    MIXING:  cpu time    0.0020: real time    0.0020
    --------------------------------------------
      LOOP:  cpu time   15.4052: real time   15.4251

 eigenvalue-minimisations  : 13473
 total energy-change (2. order) :-0.1337007E+00  (-0.1151268E+00)
 number of electron     128.0000036 magnetization       8.1364753
 augmentation part       68.0092006 magnetization       6.2009600

 Broyden mixing:
  rms(total) = 0.61523E+00    rms(broyden)= 0.61521E+00
  rms(prec ) = 0.92421E+00
  weight for this iteration     100.00

 eigenvalues of (default mixing * dielectric matrix)
  average eigenvalue GAMMA=   0.5801
  0.9957  0.7181  0.6267  0.3725  0.1874

 Free energy of the ion-electron system (eV)
  ---------------------------------------------------
  alpha Z        PSCENC =       531.79258097
  Ewald energy   TEWEN  =     -9272.77343122
  -Hartree energ DENC   =     -2955.19362490
  -exchange      EXHF   =         0.00000000
  -V(xc)+E(xc)   XCENC  =        73.78239481
  PAW double counting   =     12392.79005125   -12728.47630809
  entropy T*S    EENTRO =        -0.00218707
  eigenvalues    EBANDS =       625.17160519
  atomic energy  EATOM  =     11229.46195210
  Solvation  Ediel_sol  =         0.00000000
  ---------------------------------------------------
  free energy    TOTEN  =      -103.44696697 eV

  energy without entropy =     -103.44477990  energy(sigma->0) =     -103.44587343


--------------------------------------------------------------------------------------------------------




--------------------------------------- Iteration      1(  11)  ---------------------------------------


    POTLOK:  cpu time    0.0971: real time    0.0973
    SETDIJ:  cpu time    0.0359: real time    0.0360
    EDDIAG:  cpu time    3.3194: real time    3.3254
  RMM-DIIS:  cpu time   10.6257: real time   10.6396
    ORTHCH:  cpu time    0.6306: real time    0.6312
       DOS:  cpu time    0.0038: real time    0.0040
    CHARGE:  cpu time    0.7241: real time    0.7250
    MIXING:  cpu time    0.0020: real time    0.0020
    --------------------------------------------
      LOOP:  cpu time   15.4386: real time   15.4605

 eigenvalue-minimisations  : 13489
 total energy-change (2. order) : 0.8877862E-01  (-0.4957313E-01)
 number of electron     128.0000046 magnetization       8.7246382
 augmentation part       67.5442582 magnetization       6.6734899

 Broyden mixing:
  rms(total) = 0.31964E+00    rms(broyden)= 0.31959E+00
  rms(prec ) = 0.41533E+00
  weight for this iteration     100.00

 eigenvalues of (default mixing * dielectric matrix)
  average eigenvalue GAMMA=   0.7383
  1.9029  0.7514  0.7514  0.5593  0.1887  0.2759

 Free energy of the ion-electron system (eV)
  ---------------------------------------------------
  alpha Z        PSCENC =       531.79258097
  Ewald energy   TEWEN  =     -9272.77343122
  -Hartree energ DENC   =     -2959.33343059
  -exchange      EXHF   =         0.00000000
  -V(xc)+E(xc)   XCENC  =        75.21115210
  PAW double counting   =     12594.84021251   -12935.65822714
  entropy T*S    EENTRO =        -0.00265646
  eigenvalues    EBANDS =       633.10365937
  atomic energy  EATOM  =     11229.46195210
  Solvation  Ediel_sol  =         0.00000000
  ---------------------------------------------------
  free energy    TOTEN  =      -103.35818835 eV

  energy without entropy =     -103.35553189  energy(sigma->0) =     -103.35686012


--------------------------------------------------------------------------------------------------------




--------------------------------------- Iteration      1(  12)  ---------------------------------------


    POTLOK:  cpu time    0.0973: real time    0.0975
    SETDIJ:  cpu time    0.0359: real time    0.0359
    EDDIAG:  cpu time    3.3184: real time    3.3218
  RMM-DIIS:  cpu time   10.7486: real time   10.7624
    ORTHCH:  cpu time    0.6325: real time    0.6331
       DOS:  cpu time    0.0037: real time    0.0039
    CHARGE:  cpu time    0.7215: real time    0.7245
    MIXING:  cpu time    0.0022: real time    0.0022
    --------------------------------------------
      LOOP:  cpu time   15.5599: real time   15.5813

 eigenvalue-minimisations  : 13648
 total energy-change (2. order) :-0.2491571E-01  (-0.1316959E-01)
 number of electron     128.0000043 magnetization       8.8448947
 augmentation part       67.7959257 magnetization       6.8433726

 Broyden mixing:
  rms(total) = 0.21219E+00    rms(broyden)= 0.21218E+00
  rms(prec ) = 0.32811E+00
  weight for this iteration     100.00

 eigenvalues of (default mixing * dielectric matrix)
  average eigenvalue GAMMA=   0.7121
  2.0340  0.7830  0.7830  0.5163  0.4213  0.1884  0.2585

 Free energy of the ion-electron system (eV)
  ---------------------------------------------------
  alpha Z        PSCENC =       531.79258097
  Ewald energy   TEWEN  =     -9272.77343122
  -Hartree energ DENC   =     -2952.41591486
  -exchange      EXHF   =         0.00000000
  -V(xc)+E(xc)   XCENC  =        75.39428341
  PAW double counting   =     12793.68554472   -13136.72735677
  entropy T*S    EENTRO =        -0.00284628
  eigenvalues    EBANDS =       628.20208387
  atomic energy  EATOM  =     11229.46195210
  Solvation  Ediel_sol  =         0.00000000
  ---------------------------------------------------
  free energy    TOTEN  =      -103.38310406 eV

  energy without entropy =     -103.38025778  energy(sigma->0) =     -103.38168092


--------------------------------------------------------------------------------------------------------




--------------------------------------- Iteration      1(  13)  ---------------------------------------


    POTLOK:  cpu time    0.0971: real time    0.0973
    SETDIJ:  cpu time    0.0360: real time    0.0360
    EDDIAG:  cpu time    3.3323: real time    3.3359
  RMM-DIIS:  cpu time   10.7184: real time   10.7328
    ORTHCH:  cpu time    0.6343: real time    0.6350
       DOS:  cpu time    0.0038: real time    0.0040
    CHARGE:  cpu time    0.7236: real time    0.7242
    MIXING:  cpu time    0.0023: real time    0.0023
    --------------------------------------------
      LOOP:  cpu time   15.5478: real time   15.5674

 eigenvalue-minimisations  : 13615
 total energy-change (2. order) : 0.1904626E-01  (-0.5380447E-02)
 number of electron     128.0000045 magnetization       8.9678122
 augmentation part       67.7239866 magnetization       6.8383494

 Broyden mixing:
  rms(total) = 0.11204E+00    rms(broyden)= 0.11203E+00
  rms(prec ) = 0.14082E+00
  weight for this iteration     100.00

 eigenvalues of (default mixing * dielectric matrix)
  average eigenvalue GAMMA=   0.7575
  2.2547  0.9233  0.9233  0.6079  0.6079  0.1887  0.3016  0.2528

 Free energy of the ion-electron system (eV)
  ---------------------------------------------------
  alpha Z        PSCENC =       531.79258097
  Ewald energy   TEWEN  =     -9272.77343122
  -Hartree energ DENC   =     -2952.75046464
  -exchange      EXHF   =         0.00000000
  -V(xc)+E(xc)   XCENC  =        75.62277335
  PAW double counting   =     12853.71690173   -13197.86979866
  entropy T*S    EENTRO =        -0.00269928
  eigenvalues    EBANDS =       629.43812785
  atomic energy  EATOM  =     11229.46195210
  Solvation  Ediel_sol  =         0.00000000
  ---------------------------------------------------
  free energy    TOTEN  =      -103.36405780 eV

  energy without entropy =     -103.36135852  energy(sigma->0) =     -103.36270816


--------------------------------------------------------------------------------------------------------




--------------------------------------- Iteration      1(  14)  ---------------------------------------


    POTLOK:  cpu time    0.1039: real time    0.1108
    SETDIJ:  cpu time    0.0380: real time    0.0380
    EDDIAG:  cpu time    3.4020: real time    3.4074
  RMM-DIIS:  cpu time   11.8832: real time   11.9003
    ORTHCH:  cpu time    0.6301: real time    0.6308
       DOS:  cpu time    0.0036: real time    0.0036
    CHARGE:  cpu time    0.7273: real time    0.7280
    MIXING:  cpu time    0.0025: real time    0.0025
    --------------------------------------------
      LOOP:  cpu time   16.7906: real time   16.8213

 eigenvalue-minimisations  : 14968
 total energy-change (2. order) : 0.1251073E-02  (-0.1501839E-02)
 number of electron     128.0000045 magnetization       8.9479107
 augmentation part       67.7511617 magnetization       6.8162657

 Broyden mixing:
  rms(total) = 0.48365E-01    rms(broyden)= 0.48364E-01
  rms(prec ) = 0.52760E-01
  weight for this iteration     100.00

 eigenvalues of (default mixing * dielectric matrix)
  average eigenvalue GAMMA=   0.8298
  2.3273  1.4222  0.8695  0.8695  0.6105  0.6105  0.1887  0.3133  0.2565

 Free energy of the ion-electron system (eV)
  ---------------------------------------------------
  alpha Z        PSCENC =       531.79258097
  Ewald energy   TEWEN  =     -9272.77343122
  -Hartree energ DENC   =     -2951.34399428
  -exchange      EXHF   =         0.00000000
  -V(xc)+E(xc)   XCENC  =        75.66124867
  PAW double counting   =     12906.28355553   -13250.91234004
  entropy T*S    EENTRO =        -0.00268233
  eigenvalues    EBANDS =       628.47030387
  atomic energy  EATOM  =     11229.46195210
  Solvation  Ediel_sol  =         0.00000000
  ---------------------------------------------------
  free energy    TOTEN  =      -103.36280673 eV

  energy without entropy =     -103.36012440  energy(sigma->0) =     -103.36146556


--------------------------------------------------------------------------------------------------------




--------------------------------------- Iteration      1(  15)  ---------------------------------------


    POTLOK:  cpu time    0.0986: real time    0.0987
    SETDIJ:  cpu time    0.0358: real time    0.0358
    EDDIAG:  cpu time    3.3505: real time    3.3554
  RMM-DIIS:  cpu time   11.1440: real time   11.1579
    ORTHCH:  cpu time    0.6344: real time    0.6350
       DOS:  cpu time    0.0036: real time    0.0037
    CHARGE:  cpu time    0.7215: real time    0.7222
    MIXING:  cpu time    0.0027: real time    0.0027
    --------------------------------------------
      LOOP:  cpu time   15.9911: real time   16.0114

 eigenvalue-minimisations  : 14073
 total energy-change (2. order) :-0.1263191E-04  (-0.2500216E-03)
 number of electron     128.0000045 magnetization       8.9486450
 augmentation part       67.7626280 magnetization       6.8280043

 Broyden mixing:
  rms(total) = 0.26031E-01    rms(broyden)= 0.26030E-01
  rms(prec ) = 0.32187E-01
  weight for this iteration     100.00

 eigenvalues of (default mixing * dielectric matrix)
  average eigenvalue GAMMA=   0.9144
  2.3138  2.2221  0.9565  0.9565  0.6857  0.6857  0.5601  0.1887  0.2568  0.3181

 Free energy of the ion-electron system (eV)
  ---------------------------------------------------
  alpha Z        PSCENC =       531.79258097
  Ewald energy   TEWEN  =     -9272.77343122
  -Hartree energ DENC   =     -2951.18019211
  -exchange      EXHF   =         0.00000000
  -V(xc)+E(xc)   XCENC  =        75.64586792
  PAW double counting   =     12910.90081088   -13255.38670673
  entropy T*S    EENTRO =        -0.00267758
  eigenvalues    EBANDS =       628.17897640
  atomic energy  EATOM  =     11229.46195210
  Solvation  Ediel_sol  =         0.00000000
  ---------------------------------------------------
  free energy    TOTEN  =      -103.36281936 eV

  energy without entropy =     -103.36014178  energy(sigma->0) =     -103.36148057


--------------------------------------------------------------------------------------------------------




--------------------------------------- Iteration      1(  16)  ---------------------------------------


    POTLOK:  cpu time    0.0974: real time    0.0975
    SETDIJ:  cpu time    0.0359: real time    0.0360
    EDDIAG:  cpu time    3.3549: real time    3.3591
  RMM-DIIS:  cpu time   12.1207: real time   12.1385
    ORTHCH:  cpu time    0.6300: real time    0.6306
       DOS:  cpu time    0.0038: real time    0.0039
    CHARGE:  cpu time    0.7216: real time    0.7222
    MIXING:  cpu time    0.0028: real time    0.0028
    --------------------------------------------
      LOOP:  cpu time   16.9672: real time   16.9905

 eigenvalue-minimisations  : 15224
 total energy-change (2. order) : 0.6711292E-04  (-0.6408046E-04)
 number of electron     128.0000044 magnetization       8.9503022
 augmentation part       67.7643043 magnetization       6.8281190

 Broyden mixing:
  rms(total) = 0.96648E-02    rms(broyden)= 0.96647E-02
  rms(prec ) = 0.16881E-01
  weight for this iteration     100.00

 eigenvalues of (default mixing * dielectric matrix)
  average eigenvalue GAMMA=   0.9361
  2.4323  2.4323  1.0285  1.0285  0.7204  0.7204  0.5850  0.5850  0.1887  0.2568
  0.3189

 Free energy of the ion-electron system (eV)
  ---------------------------------------------------
  alpha Z        PSCENC =       531.79258097
  Ewald energy   TEWEN  =     -9272.77343122
  -Hartree energ DENC   =     -2951.28650642
  -exchange      EXHF   =         0.00000000
  -V(xc)+E(xc)   XCENC  =        75.67280024
  PAW double counting   =     12911.96989522   -13256.40461725
  entropy T*S    EENTRO =        -0.00265427
  eigenvalues    EBANDS =       628.20722839
  atomic energy  EATOM  =     11229.46195210
  Solvation  Ediel_sol  =         0.00000000
  ---------------------------------------------------
  free energy    TOTEN  =      -103.36275225 eV

  energy without entropy =     -103.36009798  energy(sigma->0) =     -103.36142511


--------------------------------------------------------------------------------------------------------




--------------------------------------- Iteration      1(  17)  ---------------------------------------


    POTLOK:  cpu time    0.0973: real time    0.0974
    SETDIJ:  cpu time    0.0359: real time    0.0359
    EDDIAG:  cpu time    3.3581: real time    3.3621
  RMM-DIIS:  cpu time   10.5863: real time   10.6013
    ORTHCH:  cpu time    0.6321: real time    0.6328
       DOS:  cpu time    0.0038: real time    0.0038
    CHARGE:  cpu time    0.7291: real time    0.7298
    MIXING:  cpu time    0.0030: real time    0.0030
    --------------------------------------------
      LOOP:  cpu time   15.4456: real time   15.4661

 eigenvalue-minimisations  : 13316
 total energy-change (2. order) : 0.8192856E-04  (-0.1763918E-04)
 number of electron     128.0000045 magnetization       8.9585830
 augmentation part       67.7603350 magnetization       6.8338397

 Broyden mixing:
  rms(total) = 0.33821E-02    rms(broyden)= 0.33816E-02
  rms(prec ) = 0.39904E-02
  weight for this iteration     100.00

 eigenvalues of (default mixing * dielectric matrix)
  average eigenvalue GAMMA=   0.9593
  2.5119  2.5119  1.1530  1.1530  0.7847  0.7847  0.6431  0.6431  0.5611  0.1887
  0.2567  0.3190

 Free energy of the ion-electron system (eV)
  ---------------------------------------------------
  alpha Z        PSCENC =       531.79258097
  Ewald energy   TEWEN  =     -9272.77343122
  -Hartree energ DENC   =     -2951.42765403
  -exchange      EXHF   =         0.00000000
  -V(xc)+E(xc)   XCENC  =        75.68672215
  PAW double counting   =     12910.68735006   -13255.10409989
  entropy T*S    EENTRO =        -0.00267819
  eigenvalues    EBANDS =       628.31658774
  atomic energy  EATOM  =     11229.46195210
  Solvation  Ediel_sol  =         0.00000000
  ---------------------------------------------------
  free energy    TOTEN  =      -103.36267032 eV

  energy without entropy =     -103.35999213  energy(sigma->0) =     -103.36133122


--------------------------------------------------------------------------------------------------------




--------------------------------------- Iteration      1(  18)  ---------------------------------------


    POTLOK:  cpu time    0.1041: real time    0.1080
    SETDIJ:  cpu time    0.0360: real time    0.0360
    EDDIAG:  cpu time    3.3719: real time    3.3761
  RMM-DIIS:  cpu time    8.2404: real time    8.2508
    ORTHCH:  cpu time    0.6322: real time    0.6331
       DOS:  cpu time    0.0037: real time    0.0037
    --------------------------------------------
      LOOP:  cpu time   12.3883: real time   12.4076

[...]
     79      11.0186      0.00000
     80      11.6707      0.00000
     81      11.6773      0.00000
     82      11.7755      0.00000
     83      12.0197      0.00000
     84      12.0871      0.00000


--------------------------------------------------------------------------------------------------------


 soft charge-density along one line, spin component           1
         0         1         2         3         4         5         6         7         8         9
 total charge-density along one line

 soft charge-density along one line, spin component           2
         0         1         2         3         4         5         6         7         8         9
 total charge-density along one line

 pseudopotential strength for first ion, spin component:           1
 -1.747  -0.000   0.030   0.000   0.000  -2.378  -0.000   0.029
 -0.000  -1.741   0.000  -0.009  -0.000  -0.000  -2.372   0.000
  0.030   0.000  -1.791  -0.000   0.000   0.029   0.000  -2.419
  0.000  -0.009  -0.000  -1.741  -0.000   0.000  -0.009  -0.000
  0.000  -0.000   0.000  -0.000  -1.813   0.000  -0.000   0.000
 -2.378  -0.000   0.029   0.000   0.000  -2.939  -0.000   0.028
 -0.000  -2.372   0.000  -0.009  -0.000  -0.000  -2.933   0.000
  0.029   0.000  -2.419  -0.000   0.000   0.028   0.000  -2.978
  0.000  -0.009  -0.000  -2.372  -0.000   0.000  -0.009  -0.000
  0.000  -0.000   0.000  -0.000  -2.440   0.000  -0.000   0.000
  0.005  -0.000  -0.003   0.000   0.000   0.005  -0.000  -0.003
  0.008  -0.000  -0.005   0.000   0.000   0.008  -0.000  -0.004
  0.000  -0.003  -0.000  -0.001  -0.000   0.000  -0.003  -0.000
 -0.001   0.000  -0.011   0.000   0.000  -0.001   0.000  -0.011
  0.000  -0.001  -0.000  -0.003   0.000   0.000  -0.001  -0.000
  0.000  -0.001  -0.000  -0.001  -0.000   0.000  -0.001  -0.000
 -0.001   0.000  -0.011   0.000   0.000  -0.001   0.000  -0.010
  0.000  -0.001  -0.000  -0.001   0.000   0.000  -0.001  -0.000
 pseudopotential strength for first ion, spin component:           2
 -1.533  -0.000  -0.006   0.000   0.000  -2.174  -0.000  -0.006
 -0.000  -1.538   0.000  -0.013  -0.000  -0.000  -2.179   0.000
 -0.006   0.000  -1.469  -0.000   0.000  -0.006   0.000  -2.112
  0.000  -0.013  -0.000  -1.538  -0.000   0.000  -0.012  -0.000
  0.000  -0.000   0.000  -0.000  -1.461   0.000  -0.000   0.000
 -2.174  -0.000  -0.006   0.000   0.000  -2.745  -0.000  -0.005
 -0.000  -2.179   0.000  -0.012  -0.000  -0.000  -2.750   0.000
 -0.006   0.000  -2.112  -0.000   0.000  -0.005   0.000  -2.685
  0.000  -0.012  -0.000  -2.179  -0.000   0.000  -0.012  -0.000
  0.000  -0.000   0.000  -0.000  -2.104   0.000  -0.000   0.000
 -0.002  -0.000   0.002   0.000   0.000  -0.002  -0.000   0.002
 -0.004  -0.000   0.004   0.000   0.000  -0.004  -0.000   0.004
  0.000  -0.015  -0.000   0.002  -0.000   0.000  -0.014  -0.000
  0.002   0.000  -0.014   0.000   0.000   0.002   0.000  -0.014
  0.000   0.002  -0.000  -0.015   0.000   0.000   0.002  -0.000
  0.000  -0.017  -0.000   0.003  -0.000   0.000  -0.017  -0.000
  0.003   0.000  -0.016   0.000   0.000   0.002   0.000  -0.015
  0.000   0.003  -0.000  -0.017   0.000   0.000   0.002  -0.000
 total augmentation occupancy for first ion, spin component:           1
  2.097   0.000   0.071   0.000  -0.000  -0.577   0.000  -0.047  -0.000   0.000  -0.099   0.027   0.000   0.041   0.000  -0.000
  0.000   2.041   0.000   0.093   0.000   0.000  -0.545   0.000  -0.089   0.000   0.000  -0.000   0.022   0.000   0.045  -0.013
  0.071  -0.000   2.762  -0.000  -0.000  -0.047  -0.000  -1.070  -0.000  -0.000  -0.060   0.002  -0.000  -0.080  -0.000   0.000
 -0.000   0.093  -0.000   2.041  -0.000   0.000  -0.089  -0.000  -0.545  -0.000   0.000  -0.000   0.045   0.000   0.022  -0.008
  0.000   0.000   0.000   0.000   2.716  -0.000  -0.000   0.000   0.000  -1.034  -0.000   0.000   0.000  -0.000  -0.000  -0.000
 -0.577   0.000  -0.047   0.000   0.000   0.859  -0.000   0.025  -0.000  -0.000   0.064  -0.017   0.000  -0.024   0.000  -0.000
 -0.000  -0.545  -0.000  -0.089  -0.000   0.000   0.839   0.000   0.084   0.000  -0.000   0.000   0.010  -0.000  -0.026   0.001
 -0.047   0.000  -1.070   0.000   0.000   0.025  -0.000   1.128  -0.000   0.000   0.041  -0.003  -0.000   0.078  -0.000  -0.000
  0.000  -0.089   0.000  -0.545   0.000   0.000   0.084   0.000   0.839  -0.000  -0.000   0.000  -0.026  -0.000   0.010   0.005
  0.000  -0.000  -0.000   0.000  -1.034  -0.000  -0.000   0.000  -0.000   1.091   0.000   0.000  -0.000   0.000   0.000   0.000
 -0.099   0.000  -0.060  -0.000  -0.000   0.064  -0.000   0.041   0.000   0.000   2.119  -0.280   0.000   0.065   0.000   0.000
  0.027   0.000   0.002   0.000  -0.000  -0.017  -0.000  -0.003  -0.000  -0.000  -0.280   0.047  -0.000   0.001   0.000   0.000
  0.000   0.022  -0.000   0.045   0.000   0.000   0.010  -0.000  -0.026   0.000  -0.000   0.000   0.254   0.000   0.002  -0.026
  0.041  -0.000  -0.080   0.000   0.000  -0.024  -0.000   0.078  -0.000  -0.000   0.065   0.001  -0.000   0.265  -0.000  -0.000
 -0.000   0.045  -0.000   0.022   0.000  -0.000  -0.026  -0.000   0.010   0.000  -0.000  -0.000   0.002   0.000   0.254  -0.002
 -0.000  -0.013  -0.000  -0.008   0.000   0.000   0.001   0.000   0.005   0.000  -0.000  -0.000  -0.026   0.000  -0.002   0.003
 -0.008  -0.000  -0.006   0.000  -0.000   0.005  -0.000  -0.008  -0.000   0.000  -0.008  -0.000  -0.000  -0.027   0.000   0.000
 -0.000  -0.008   0.000  -0.013  -0.000  -0.000   0.005  -0.000   0.001   0.000  -0.000  -0.000  -0.002   0.000  -0.026   0.000
 total augmentation occupancy for first ion, spin component:           2
  0.460   0.000  -0.132   0.000   0.000  -0.302   0.000   0.060  -0.000   0.000  -0.039   0.002  -0.000   0.048   0.000   0.000
  0.000   0.311   0.000   0.104   0.000   0.000  -0.191   0.000  -0.093  -0.000   0.000   0.000  -0.117   0.000   0.045   0.003
 -0.132   0.000   0.640  -0.000   0.000   0.061  -0.000  -0.324  -0.000  -0.000   0.057   0.005  -0.000   0.055   0.000   0.000
  0.000   0.104  -0.000   0.311   0.000   0.000  -0.093   0.000  -0.191  -0.000   0.000   0.000   0.045   0.000  -0.117  -0.002
 -0.000   0.000   0.000  -0.000   0.754   0.000  -0.000   0.000   0.000  -0.381   0.000   0.000  -0.000  -0.000   0.000  -0.000
 -0.302  -0.000   0.061  -0.000  -0.000   0.172  -0.000  -0.015   0.000   0.000   0.022  -0.006   0.000  -0.034   0.000  -0.000
 -0.000  -0.191   0.000  -0.093  -0.000   0.000   0.092  -0.000   0.077  -0.000   0.000  -0.000   0.074   0.000  -0.032  -0.007
  0.060   0.000  -0.324  -0.000   0.000  -0.015  -0.000   0.119  -0.000   0.000  -0.037   0.001   0.000  -0.056   0.000   0.000
  0.000  -0.093  -0.000  -0.191   0.000   0.000   0.077  -0.000   0.092  -0.000  -0.000   0.000  -0.032   0.000   0.074   0.003
  0.000   0.000  -0.000   0.000  -0.381  -0.000   0.000   0.000   0.000   0.137  -0.000   0.000  -0.000   0.000   0.000  -0.000
 -0.039  -0.000   0.057   0.000   0.000   0.022  -0.000  -0.037   0.000  -0.000  -0.047   0.010  -0.000  -0.016  -0.000  -0.000
  0.002  -0.000   0.005  -0.000   0.000  -0.006  -0.000   0.001   0.000   0.000   0.010  -0.002   0.000  -0.006   0.000   0.000
  0.000  -0.117  -0.000   0.045   0.000  -0.000   0.074   0.000  -0.032   0.000   0.000  -0.000   0.002  -0.000   0.004  -0.000
  0.048  -0.000   0.055  -0.000  -0.000  -0.034   0.000  -0.056   0.000  -0.000  -0.016  -0.006   0.000  -0.008   0.000  -0.000
  0.000   0.045   0.000  -0.117   0.000  -0.000  -0.032  -0.000   0.074   0.000   0.000  -0.000   0.004  -0.000   0.002  -0.001
 -0.000   0.003   0.000  -0.002   0.000  -0.000  -0.007   0.000   0.003   0.000  -0.000   0.000  -0.000  -0.000  -0.001   0.000
 -0.001   0.000  -0.002   0.000   0.000   0.002   0.000   0.003  -0.000  -0.000  -0.003   0.001  -0.000   0.001  -0.000  -0.000
 -0.000  -0.002   0.000   0.003  -0.000   0.000   0.003   0.000  -0.007  -0.000   0.000   0.000  -0.001  -0.000  -0.000   0.000


------------------------ aborting loop because EDIFF is reached ----------------------------------------





 total charge     

# of ion       s       p       d       tot
------------------------------------------
    1        0.474   0.427   8.376   9.276
    2        0.472   0.427   8.375   9.274
    3        0.472   0.427   8.375   9.274
    4        0.474   0.427   8.376   9.276
    5        0.474   0.427   8.376   9.276
    6        0.472   0.427   8.375   9.274
    7        0.472   0.427   8.375   9.274
    8        0.474   0.427   8.376   9.276
    9        0.309   0.293   4.933   5.535
   10        0.309   0.293   4.933   5.535
   11        0.339   0.342   4.975   5.656
   12        0.348   0.334   4.958   5.640
   13        0.339   0.342   4.975   5.656
   14        0.348   0.334   4.958   5.640
   15        1.244   1.730   0.299   3.273
   16        1.244   1.730   0.299   3.273
--------------------------------------------------
tot          8.263   8.814  97.334 114.410



 magnetization (x)

# of ion       s       p       d       tot
------------------------------------------
    1       -0.006  -0.003   0.299   0.289
    2       -0.007  -0.001   0.291   0.283
    3       -0.007  -0.001   0.291   0.283
    4       -0.006  -0.003   0.299   0.289
    5       -0.006  -0.003   0.299   0.289
    6       -0.007  -0.001   0.291   0.283
    7       -0.007  -0.001   0.291   0.283
    8       -0.006  -0.003   0.299   0.289
    9       -0.041  -0.033  -3.582  -3.656
   10       -0.041  -0.033  -3.582  -3.656
   11        0.018   0.016   3.359   3.393
   12        0.029   0.011   3.482   3.522
   13        0.018   0.016   3.359   3.393
   14        0.029   0.011   3.482   3.522
   15        0.001   0.044  -0.006   0.038
   16        0.001   0.044  -0.006   0.038
--------------------------------------------------
tot         -0.041   0.062   8.860   8.882

    CHARGE:  cpu time    0.7037: real time    0.7043
    FORLOC:  cpu time    0.0065: real time    0.0066
    FORNL :  cpu time    4.9910: real time    4.9969
    STRESS:  cpu time   15.0009: real time   15.0179
    FORCOR:  cpu time    0.0995: real time    0.0997
    FORHAR:  cpu time    0.0161: real time    0.0161
    MIXING:  cpu time    0.0032: real time    0.0032
    OFIELD:  cpu time    0.0000: real time    0.0000

  FORCE on cell =-STRESS in cart. coord.  units (eV):
  Direction    XX          YY          ZZ          XY          YZ          ZX
  --------------------------------------------------------------------------------------
  Alpha Z   531.79258   531.79258   531.79258
  Ewald   -2958.05285 -2958.05285 -3356.69629     0.00000     0.00000    -0.00000
  Hartree  1107.45353  1107.45353   736.47108    -0.00000    -0.00000    -0.00000
  E(xc)    -671.02411  -671.02411  -670.60581     0.00000    -0.00000    -0.00000
  Local    -507.63641  -507.63641   268.19808     0.00000    -0.00000     0.00000
  n-local  -150.42899  -146.31162  -148.93751    -0.08967    -0.66461     0.33973
  augment  1580.20962  1580.20962  1577.17159     0.00000    -0.00000    -0.00000
  Kinetic  1054.94721  1075.22809  1061.03210    -0.26255     1.05035     1.18471
  Fock        0.00000     0.00000     0.00000     0.00000     0.00000     0.00000
  -------------------------------------------------------------------------------------
  Total      -0.54030    -0.54030    -1.57418     0.00000    -0.00000    -0.00000
  in kB      -4.09107    -4.09107   -11.91954     0.00000    -0.00000    -0.00000
  external pressure =       -6.70 kB  Pullay stress =        0.00 kB


 VOLUME and BASIS-vectors are now :
 -----------------------------------------------------------------------------
  energy-cutoff  :      550.00
  volume of cell :      211.59
      direct lattice vectors                 reciprocal lattice vectors
     5.958931059  0.000000000  0.000000000     0.167815333  0.000000000  0.000000000
     0.000000000  5.958931059  0.000000000     0.000000000  0.167815333  0.000000000
     0.000000000  0.000000000  5.958931059     0.000000000  0.000000000  0.167815333

  length of vectors
     5.958931059  5.958931059  5.958931059     0.167815333  0.167815333  0.167815333


 FORCES acting on ions
    electron-ion (+dipol)            ewald-force                    non-local-force                 convergence-correction
 -----------------------------------------------------------------------------------------------
   0.791E-12 0.573E-12 0.186E+03   -.924E-13 0.355E-13 -.183E+03   0.260E-17 -.520E-17 -.272E+01   -.710E-15 -.397E-13 0.840E-02
   0.993E-12 -.151E-11 0.186E+03   -.639E-13 0.213E-13 -.183E+03   -.781E-17 0.694E-17 -.272E+01   0.206E-14 -.124E-13 0.840E-02
   0.391E-12 0.385E-11 0.186E+03   -.639E-13 0.497E-13 -.183E+03   0.607E-17 -.347E-17 -.272E+01   0.600E-13 0.380E-13 0.840E-02
   0.193E-11 -.442E-11 0.186E+03   -.497E-13 0.639E-13 -.183E+03   -.867E-18 0.000E+00 -.272E+01   -.557E-13 0.292E-13 0.840E-02
   0.551E-12 0.686E-12 -.186E+03   -.853E-13 -.213E-13 0.183E+03   0.260E-17 0.867E-18 0.272E+01   0.513E-13 -.157E-13 -.840E-02
   0.158E-11 -.746E-12 -.186E+03   -.568E-13 -.711E-14 0.183E+03   0.173E-17 0.347E-17 0.272E+01   -.113E-13 -.627E-13 -.840E-02
   0.323E-12 0.311E-11 -.186E+03   -.711E-13 -.711E-14 0.183E+03   0.000E+00 0.000E+00 0.272E+01   0.219E-14 0.780E-13 -.840E-02
   0.209E-11 0.365E-11 -.186E+03   -.426E-13 0.711E-14 0.183E+03   -.260E-17 -.954E-17 0.272E+01   0.186E-13 0.152E-12 -.840E-02
   0.207E-12 -.164E-14 -.615E-12   -.873E-13 -.244E-13 -.313E-13   -.265E-22 0.265E-22 0.000E+00   -.273E-14 0.385E-13 0.371E-13
   -.387E-13 0.223E-12 -.574E-13   -.883E-13 -.146E-13 -.313E-13   -.199E-22 0.265E-22 0.662E-23   0.387E-13 -.462E-13 0.446E-13
   -.487E-13 -.679E-13 0.208E-12   0.181E-12 -.107E-13 0.289E-13   0.000E+00 0.000E+00 0.000E+00   0.507E-13 0.389E-13 -.250E-13
   0.202E-12 -.538E-13 0.165E-11   0.188E-12 -.112E-13 0.316E-13   0.132E-22 0.000E+00 0.000E+00   -.777E-14 0.488E-13 -.285E-13
   0.204E-12 0.195E-12 0.997E-12   0.185E-12 -.150E-13 0.355E-15   0.000E+00 0.000E+00 0.000E+00   -.159E-13 -.365E-13 -.737E-13
   -.506E-13 0.217E-12 0.201E-12   0.187E-12 -.155E-13 0.308E-14   0.662E-23 0.000E+00 0.331E-23   0.626E-13 -.424E-13 -.497E-13
   -.181E-13 -.242E-13 -.167E-13   -.142E-13 -.108E-14 -.152E-13   0.132E-22 -.662E-23 0.000E+00   0.821E-14 0.139E-13 0.101E-13
   -.109E-13 -.486E-12 0.203E-13   -.128E-13 0.855E-16 -.152E-13   0.000E+00 -.132E-22 0.000E+00   -.891E-14 -.135E-13 0.183E-13
 -----------------------------------------------------------------------------------------------
   0.910E-11 0.520E-11 0.891E-11   0.134E-13 0.498E-13 -.859E-13   0.173E-17 -.694E-17 -.444E-15   0.191E-12 0.169E-12 -.407E-12


 POSITION                                       TOTAL-FORCE (eV/Angst)
 -----------------------------------------------------------------------------------
      1.48973      1.48973      1.60968         0.000000      0.000000     -0.000348
      4.46920      1.48973      1.60968        -0.000000      0.000000     -0.000348
      1.48973      4.46920      1.60968        -0.000000      0.000000     -0.000348
      4.46920      4.46920      1.60968         0.000000     -0.000000     -0.000348
      1.48973      1.48973      4.34925        -0.000000     -0.000000      0.000348
      4.46920      1.48973      4.34925         0.000000      0.000000      0.000348
      1.48973      4.46920      4.34925         0.000000      0.000000      0.000348
      4.46920      4.46920      4.34925        -0.000000     -0.000000      0.000348
      2.97947      0.00000      0.00000        -0.000000     -0.000000      0.000000
      0.00000      2.97947      0.00000        -0.000000     -0.000000     -0.000000
      0.00000      0.00000      2.97947        -0.000000     -0.000000      0.000000
      2.97947      0.00000      2.97947         0.000000     -0.000000      0.000000
      2.97947      2.97947      2.97947        -0.000000     -0.000000     -0.000000
      0.00000      2.97947      2.97947        -0.000000     -0.000000      0.000000
      0.00000      0.00000      0.00000        -0.000000     -0.000000      0.000000
      2.97947      2.97947      0.00000        -0.000000     -0.000000      0.000000
 -----------------------------------------------------------------------------------
    total drift:                                0.000000      0.000000      0.000000


--------------------------------------------------------------------------------------------------------



  FREE ENERGIE OF THE ION-ELECTRON SYSTEM (eV)
  ---------------------------------------------------
  free  energy   TOTEN  =      -103.36267609 eV

  energy  without entropy=     -103.35999750  energy(sigma->0) =     -103.36133679



--------------------------------------------------------------------------------------------------------


    POTLOK:  cpu time    0.1339: real time    0.1340


--------------------------------------------------------------------------------------------------------




--------------------------------------------------------------------------------------------------------


  
 reached required accuracy - stopping structural energy minimisation
     LOOP+:  cpu time  360.5613: real time  361.0957
    4ORBIT:  cpu time    0.0000: real time    0.0000



 total charge     

# of ion       s       p       d       tot
------------------------------------------
    1        0.474   0.427   8.376   9.276
    2        0.472   0.427   8.375   9.274
    3        0.472   0.427   8.375   9.274
    4        0.474   0.427   8.376   9.276
    5        0.474   0.427   8.376   9.276
    6        0.472   0.427   8.375   9.274
    7        0.472   0.427   8.375   9.274
    8        0.474   0.427   8.376   9.276
    9        0.309   0.293   4.933   5.535
   10        0.309   0.293   4.933   5.535
   11        0.339   0.342   4.975   5.656
   12        0.348   0.334   4.958   5.640
   13        0.339   0.342   4.975   5.656
   14        0.348   0.334   4.958   5.640
   15        1.244   1.730   0.299   3.273
   16        1.244   1.730   0.299   3.273
--------------------------------------------------
tot          8.263   8.814  97.334 114.410



 magnetization (x)

# of ion       s       p       d       tot
------------------------------------------
    1       -0.006  -0.003   0.299   0.289
    2       -0.007  -0.001   0.291   0.283
    3       -0.007  -0.001   0.291   0.283
    4       -0.006  -0.003   0.299   0.289
    5       -0.006  -0.003   0.299   0.289
    6       -0.007  -0.001   0.291   0.283
    7       -0.007  -0.001   0.291   0.283
    8       -0.006  -0.003   0.299   0.289
    9       -0.041  -0.033  -3.582  -3.656
   10       -0.041  -0.033  -3.582  -3.656
   11        0.018   0.016   3.359   3.393
   12        0.029   0.011   3.482   3.522
   13        0.018   0.016   3.359   3.393
   14        0.029   0.011   3.482   3.522
   15        0.001   0.044  -0.006   0.038
   16        0.001   0.044  -0.006   0.038
--------------------------------------------------
tot         -0.041   0.062   8.860   8.882


 total amount of memory used by VASP MPI-rank0   103512. kBytes
=======================================================================

   base      :      30000. kBytes
   nonlr-proj:       6790. kBytes
   fftplans  :       1269. kBytes
   grid      :       6573. kBytes
   one-center:        497. kBytes
   wavefun   :      58383. kBytes

  
  
 General timing and accounting informations for this job:
 ========================================================
  
                  Total CPU time used (sec):      371.260
                            User time (sec):      351.546
                          System time (sec):       19.714
                         Elapsed time (sec):      372.821
  
                   Maximum memory used (kb):      133332.
                   Average memory used (kb):           0.
  
                          Minor page faults:      9132956
                          Major page faults:            8
                 Voluntary context switches:         2103
