 vasp.5.4.4.18Apr17-6-g9f103f2a35 (build May 21 2018 20:56:50) complex           
 executed on             LinuxGNU date 2021.10.15  15:42:34
 running on   12 total cores
 distrk:  each k-point on   12 cores,    1 groups
 distr:  one band on NCORES_PER_BAND=   1 cores,   12 groups


--------------------------------------------------------------------------------------------------------


 INCAR:
 POTCAR:    PAW_PBE Ni 02Aug2007                  
 POTCAR:    PAW_PBE Mn 06Sep2000                  
 POTCAR:    PAW_PBE In 08Apr2002                  

 ----------------------------------------------------------------------------- 
|                                                                             |
|           W    W    AA    RRRRR   N    N  II  N    N   GGGG   !!!           |
|           W    W   A  A   R    R  NN   N  II  NN   N  G    G  !!!           |
|           W    W  A    A  R    R  N N  N  II  N N  N  G       !!!           |
|           W WW W  AAAAAA  RRRRR   N  N N  II  N  N N  G  GGG   !            |
|           WW  WW  A    A  R   R   N   NN  II  N   NN  G    G                |
|           W    W  A    A  R    R  N    N  II  N    N   GGGG   !!!           |
|                                                                             |
|      For optimal performance we recommend to set                            |
|        NCORE= 4 - approx SQRT( number of cores)                             |
|      NCORE specifies how many cores store one orbital (NPAR=cpu/NCORE).     |
|      This setting can  greatly improve the performance of VASP for DFT.     |
|      The default,   NCORE=1            might be grossly inefficient         |
|      on modern multi-core architectures or massively parallel machines.     |
|      Do your own testing !!!!                                               |
|      Unfortunately you need to use the default for GW and RPA calculations. |
|      (for HF NCORE is supported but not extensively tested yet)             |
|                                                                             |
 ----------------------------------------------------------------------------- 

 POTCAR:    PAW_PBE Ni 02Aug2007                  
   VRHFIN =Ni:                                                                  
   LEXCH  = PE                                                                  
   EATOM  =  1077.6739 eV,   79.2068 Ry                                         
                                                                                
   TITEL  = PAW_PBE Ni 02Aug2007                                                
   LULTRA =        F    use ultrasoft PP ?                                      
   IUNSCR =        1    unscreen: 0-lin 1-nonlin 2-no                           
   RPACOR =    2.000    partial core radius                                     
   POMASS =   58.690; ZVAL   =   10.000    mass and valenz                      
   RCORE  =    2.300    outmost cutoff radius                                   
   RWIGS  =    2.430; RWIGS  =    1.286    wigner-seitz radius (au A)           
   ENMAX  =  269.532; ENMIN  =  202.149 eV                                      
   RCLOC  =    1.201    cutoff for local pot                                    
   LCOR   =        T    correct aug charges                                     
   LPAW   =        T    paw PP                                                  
   EAUG   =  544.565                                                            
   DEXC   =    0.000                                                            
   RMAX   =    2.357    core radius for proj-oper                               
   RAUG   =    1.300    factor for augmentation sphere                          
   RDEP   =    2.390    radius for radial grids                                 
   RDEPT  =    1.838    core radius for aug-charge                              
                                                                                
   Atomic configuration                                                         
    9 entries                                                                   
     n  l   j            E        occ.                                          
     1  0  0.50     -8206.4253   2.0000                                         
     2  0  0.50      -976.1748   2.0000                                         
     2  1  1.50      -839.0571   6.0000                                         
     3  0  0.50      -105.9991   2.0000                                         
     3  1  1.50       -66.4603   6.0000                                         
     3  2  2.50        -4.6458   9.0000                                         
     4  0  0.50        -4.4926   1.0000                                         
     4  1  1.50        -4.0817   0.0000                                         
     4  3  2.50        -1.3606   0.0000                                         
   Description                                                                  
     l       E           TYP  RCUT    TYP  RCUT                                 
     2     -4.6457903     23  2.300                                             
     2     -6.0063729     23  2.300                                             
     0     -4.4925590     23  2.300                                             
     0      5.0102601     23  2.300                                             
     1     -2.7211652     23  2.300                                             
     1     16.5183231     23  2.300                                             
  local pseudopotential read in
  partial core-charges read in
  partial kinetic energy density read in
  atomic valenz-charges read in
  non local Contribution for L=           2  read in
    real space projection operators read in
  non local Contribution for L=           2  read in
    real space projection operators read in
  non local Contribution for L=           0  read in
    real space projection operators read in
  non local Contribution for L=           0  read in
    real space projection operators read in
  non local Contribution for L=           1  read in
    real space projection operators read in
  non local Contribution for L=           1  read in
    real space projection operators read in
    PAW grid and wavefunctions read in

   number of l-projection  operators is LMAX  =           6
   number of lm-projection operators is LMMAX =          18

 POTCAR:    PAW_PBE Mn 06Sep2000                  
   VRHFIN =Mn: d6 s1                                                            
   LEXCH  = PE                                                                  
   EATOM  =   416.7541 eV,   30.6306 Ry                                         
                                                                                
   TITEL  = PAW_PBE Mn 06Sep2000                                                
   LULTRA =        F    use ultrasoft PP ?                                      
   IUNSCR =        1    unscreen: 0-lin 1-nonlin 2-no                           
   RPACOR =    2.000    partial core radius                                     
   POMASS =   54.938; ZVAL   =    7.000    mass and valenz                      
   RCORE  =    2.300    outmost cutoff radius                                   
   RWIGS  =    2.500; RWIGS  =    1.323    wigner-seitz radius (au A)           
   ENMAX  =  269.864; ENMIN  =  202.398 eV                                      
   RCLOC  =    1.725    cutoff for local pot                                    
   LCOR   =        T    correct aug charges                                     
   LPAW   =        T    paw PP                                                  
   EAUG   =  500.711                                                            
   DEXC   =    0.000                                                            
   RMAX   =    2.343    core radius for proj-oper                               
   RAUG   =    1.300    factor for augmentation sphere                          
   RDEP   =    2.338    radius for radial grids                                 
   RDEPT  =    1.911    core radius for aug-charge                              
                                                                                
   Atomic configuration                                                         
    9 entries                                                                   
     n  l   j            E        occ.                                          
     1  0  0.50     -6424.8288   2.0000                                         
     2  0  0.50      -739.1154   2.0000                                         
     2  1  1.50      -625.3949   6.0000                                         
     3  0  0.50       -81.6100   2.0000                                         
     3  1  1.50       -50.4667   6.0000                                         
     3  2  2.50        -3.3745   6.0000                                         
     4  0  0.50        -4.1331   1.0000                                         
     4  1  0.50        -4.0817   0.0000                                         
     4  3  2.50        -1.3606   0.0000                                         
   Description                                                                  
     l       E           TYP  RCUT    TYP  RCUT                                 
     2     -3.3744664     23  2.300                                             
     2     -4.7350490     23  2.300                                             
     0     -4.1331408     23  2.300                                             
     0      7.6656614     23  2.300                                             
     1     -2.7211652     23  2.300                                             
     1     20.4087390     23  2.300                                             
  local pseudopotential read in
  partial core-charges read in
  partial kinetic energy density read in
  atomic valenz-charges read in
  non local Contribution for L=           2  read in
    real space projection operators read in
  non local Contribution for L=           2  read in
    real space projection operators read in
  non local Contribution for L=           0  read in
    real space projection operators read in
  non local Contribution for L=           0  read in
    real space projection operators read in
  non local Contribution for L=           1  read in
    real space projection operators read in
  non local Contribution for L=           1  read in
    real space projection operators read in
    PAW grid and wavefunctions read in

   number of l-projection  operators is LMAX  =           6
   number of lm-projection operators is LMMAX =          18

 POTCAR:    PAW_PBE In 08Apr2002                  
   VRHFIN =In: s2p1                                                             
   LEXCH  = PE                                                                  
   EATOM  =    53.7908 eV,    3.9535 Ry                                         
                                                                                
   TITEL  = PAW_PBE In 08Apr2002                                                
   LULTRA =        F    use ultrasoft PP ?                                      
   IUNSCR =        1    unscreen: 0-lin 1-nonlin 2-no                           
   RPACOR =    2.400    partial core radius                                     
   POMASS =  114.820; ZVAL   =    3.000    mass and valenz                      
   RCORE  =    3.100    outmost cutoff radius                                   
   RWIGS  =    3.170; RWIGS  =    1.677    wigner-seitz radius (au A)           
   ENMAX  =   95.934; ENMIN  =   71.951 eV                                      
   ICORE  =        3    local potential                                         
   LCOR   =        T    correct aug charges                                     
   LPAW   =        T    paw PP                                                  
   EAUG   =  237.125                                                            
   DEXC   =    0.000                                                            
   RMAX   =    3.168    core radius for proj-oper                               
   RAUG   =    1.300    factor for augmentation sphere                          
   RDEP   =    3.187    radius for radial grids                                 
   RDEPT  =    2.711    core radius for aug-charge                              
                                                                                
   Atomic configuration                                                         
   13 entries                                                                   
     n  l   j            E        occ.                                          
     1  0  0.50    -27747.9169   2.0000                                         
     2  0  0.50     -4154.4438   2.0000                                         
     2  1  1.50     -3728.4305   6.0000                                         
     3  0  0.50      -788.3680   2.0000                                         
     3  1  1.50      -648.9215   6.0000                                         
     3  2  2.50      -432.5893  10.0000                                         
     4  0  0.50      -119.6363   2.0000                                         
     4  1  1.50       -78.1086   6.0000                                         
     4  2  2.50       -18.6227  10.0000                                         
     5  0  0.50        -8.2107   2.0000                                         
     5  1  0.50        -2.5185   1.0000                                         
     5  2  2.50        -1.3606   0.0000                                         
     4  3  2.50        -2.7212   0.0000                                         
   Description                                                                  
     l       E           TYP  RCUT    TYP  RCUT                                 
     0     -8.2107306     23  3.100                                             
     0     -6.1485975     23  3.100                                             
     1     -2.5184867     23  3.100                                             
     1      3.2427302     23  3.100                                             
     2     -1.3605826     23  3.100                                             
     3     -1.3605826     23  3.100                                             
  local pseudopotential read in
  partial core-charges read in
  partial kinetic energy density read in
  atomic valenz-charges read in
  non local Contribution for L=           0  read in
    real space projection operators read in
  non local Contribution for L=           0  read in
    real space projection operators read in
  non local Contribution for L=           1  read in
    real space projection operators read in
  non local Contribution for L=           1  read in
    real space projection operators read in
  non local Contribution for L=           2  read in
    real space projection operators read in
    PAW grid and wavefunctions read in

   number of l-projection  operators is LMAX  =           5
   number of lm-projection operators is LMMAX =          13

 Optimization of the real space projectors (new method)

 maximal supplied QI-value         = 16.25
 optimisation between [QCUT,QGAM] = [ 11.86, 23.89] = [ 39.41,159.82] Ry 
 Optimized for a Real-space Cutoff    1.33 Angstroem

   l    n(q)    QCUT    max X(q) W(low)/X(q) W(high)/X(q)  e(spline) 
   2      9    11.864    60.317    0.21E-03    0.51E-03    0.25E-06
   2      9    11.864    55.921    0.21E-03    0.51E-03    0.26E-06
   0      9    11.864    51.690    0.22E-03    0.30E-04    0.17E-06
   0      9    11.864    30.015    0.20E-03    0.28E-04    0.15E-06
   1      9    11.864    18.849    0.76E-04    0.33E-03    0.17E-06
   1      9    11.864    14.624    0.60E-04    0.28E-03    0.15E-06
 Optimization of the real space projectors (new method)

 maximal supplied QI-value         = 16.25
 optimisation between [QCUT,QGAM] = [ 11.86, 23.89] = [ 39.41,159.82] Ry 
 Optimized for a Real-space Cutoff    1.36 Angstroem

   l    n(q)    QCUT    max X(q) W(low)/X(q) W(high)/X(q)  e(spline) 
   2      9    11.864   110.144    0.49E-03    0.50E-03    0.21E-06
   2      9    11.864   103.200    0.49E-03    0.51E-03    0.22E-06
   0     10    11.864    68.437    0.12E-03    0.41E-04    0.21E-06
   0     10    11.864    33.971    0.11E-03    0.36E-04    0.19E-06
   1      9    11.864    17.065    0.24E-03    0.26E-03    0.93E-07
   1      9    11.864    12.540    0.19E-03    0.20E-03    0.80E-07
 Optimization of the real space projectors (new method)

 maximal supplied QI-value         = 12.09
 optimisation between [QCUT,QGAM] = [ 11.97, 23.95] = [ 40.14,160.58] Ry 
 Optimized for a Real-space Cutoff    1.63 Angstroem

   l    n(q)    QCUT    max X(q) W(low)/X(q) W(high)/X(q)  e(spline) 
   0     12    11.973   106.980    0.33E-03    0.16E-03    0.25E-05
   0     12    11.973    81.086    0.37E-03    0.18E-03    0.28E-05
   1     11    11.973    53.097    0.22E-03    0.42E-03    0.40E-05
   1     11    11.973    32.621    0.20E-03    0.40E-03    0.37E-05
   2     11    11.973     8.820    0.30E-03    0.17E-03    0.41E-06
  PAW_PBE Ni 02Aug2007                  :
 energy of atom  1       EATOM=-1077.6739
 kinetic energy error for atom=    0.0027 (will be added to EATOM!!)
  PAW_PBE Mn 06Sep2000                  :
 energy of atom  2       EATOM= -416.7541
 kinetic energy error for atom=    0.0022 (will be added to EATOM!!)
  PAW_PBE In 08Apr2002                  :
 energy of atom  3       EATOM=  -53.7908
 kinetic energy error for atom=    0.0000 (will be added to EATOM!!)


 POSCAR: Ni2MnIn                                 
  positions in direct lattice
  velocities in cartesian coordinates
 exchange correlation table for  LEXCH =        8
   RHO(1)=    0.500       N(1)  =     2000
   RHO(2)=  100.500       N(2)  =     4000



--------------------------------------------------------------------------------------------------------


 ion  position               nearest neighbor table
   1  0.250  0.250  0.269-  12 2.52  11 2.52  13 2.52  14 2.52   9 2.65  15 2.65  16 2.65  10 2.65
                             5 2.76   3 2.98   2 2.98   3 2.98   2 2.98
   2  0.750  0.250  0.269-  12 2.52  11 2.52  13 2.52  14 2.52   9 2.65  15 2.65  16 2.65  10 2.65
                             6 2.76   4 2.98   1 2.98   4 2.98   1 2.98
   3  0.250  0.750  0.269-  12 2.52  11 2.52  13 2.52  14 2.52   9 2.65  15 2.65  16 2.65  10 2.65
                             7 2.76   4 2.98   1 2.98   1 2.98   4 2.98
   4  0.750  0.750  0.269-  12 2.52  11 2.52  13 2.52  14 2.52   9 2.65  15 2.65  16 2.65  10 2.65
                             8 2.76   3 2.98   2 2.98   3 2.98   2 2.98
   5  0.250  0.250  0.731-  12 2.52  11 2.52  13 2.52  14 2.52   9 2.65  15 2.65  16 2.65  10 2.65
                             1 2.76   6 2.98   7 2.98   7 2.98   6 2.98
   6  0.750  0.250  0.731-  12 2.52  11 2.52  13 2.52  14 2.52   9 2.65  15 2.65  16 2.65  10 2.65
                             2 2.76   5 2.98   8 2.98   8 2.98   5 2.98
   7  0.250  0.750  0.731-  12 2.52  11 2.52  13 2.52  14 2.52   9 2.65  15 2.65  16 2.65  10 2.65
                             3 2.76   5 2.98   8 2.98   5 2.98   8 2.98
   8  0.750  0.750  0.731-  12 2.52  11 2.52  13 2.52  14 2.52   9 2.65  15 2.65  16 2.65  10 2.65
                             4 2.76   6 2.98   7 2.98   7 2.98   6 2.98
   9  0.500  0.000  0.000-   1 2.65   2 2.65   3 2.65   4 2.65   5 2.65   6 2.65   7 2.65   8 2.65
                            12 2.98  15 2.98  16 2.98  12 2.98  16 2.98  15 2.98
  10  0.000  0.500  0.000-   1 2.65   2 2.65   3 2.65   4 2.65   5 2.65   6 2.65   7 2.65   8 2.65
                            14 2.98  15 2.98  16 2.98  14 2.98  15 2.98  16 2.98
  11  0.000  0.000  0.500-   1 2.52   2 2.52   3 2.52   4 2.52   5 2.52   6 2.52   7 2.52   8 2.52
                            12 2.98  14 2.98  15 2.98  15 2.98  14 2.98  12 2.98
  12  0.500  0.000  0.500-   1 2.52   2 2.52   3 2.52   4 2.52   5 2.52   6 2.52   7 2.52   8 2.52
                             9 2.98  11 2.98  13 2.98   9 2.98  13 2.98  11 2.98
  13  0.500  0.500  0.500-   1 2.52   2 2.52   3 2.52   4 2.52   5 2.52   6 2.52   7 2.52   8 2.52
                            12 2.98  14 2.98  16 2.98  16 2.98  12 2.98  14 2.98
  14  0.000  0.500  0.500-   1 2.52   2 2.52   3 2.52   4 2.52   5 2.52   6 2.52   7 2.52   8 2.52
                            10 2.98  11 2.98  13 2.98  10 2.98  11 2.98  13 2.98
  15  0.000  0.000  0.000-   1 2.65   2 2.65   3 2.65   4 2.65   5 2.65   6 2.65   7 2.65   8 2.65
                             9 2.98  10 2.98  11 2.98  11 2.98  10 2.98   9 2.98
  16  0.500  0.500  0.000-   1 2.65   2 2.65   3 2.65   4 2.65   5 2.65   6 2.65   7 2.65   8 2.65
                             9 2.98  10 2.98  13 2.98  13 2.98   9 2.98  10 2.98

  LATTYP: Found a simple cubic cell.
 ALAT       =     5.9649120343
  
  Lattice vectors:
  
 A1 = (   5.9649120343,   0.0000000000,   0.0000000000)
 A2 = (   0.0000000000,   5.9649120343,   0.0000000000)
 A3 = (   0.0000000000,   0.0000000000,   5.9649120343)


Analysis of symmetry for initial positions (statically):
=====================================================================
 Subroutine PRICEL returns:
 Original cell was already a primitive cell.
 

 Routine SETGRP: Setting up the symmetry group for a 
 simple cubic supercell.


 Subroutine GETGRP returns: Found 16 space group operations
 (whereof  8 operations were pure point group operations)
 out of a pool of 48 trial point group operations.


The static configuration has the point symmetry D_2h.
 The point group associated with its full space group is D_4h.


Analysis of symmetry for dynamics (positions and initial velocities):
=====================================================================
 Subroutine PRICEL returns:
 Original cell was already a primitive cell.
 

 Routine SETGRP: Setting up the symmetry group for a 
 simple cubic supercell.


 Subroutine GETGRP returns: Found 16 space group operations
 (whereof  8 operations were pure point group operations)
 out of a pool of 48 trial point group operations.


The dynamic configuration has the point symmetry D_2h.
 The point group associated with its full space group is D_4h.


Analysis of structural, dynamic, and magnetic symmetry:
=====================================================================
 Subroutine PRICEL returns:
 Original cell was already a primitive cell.
 

 Routine SETGRP: Setting up the symmetry group for a 
 simple cubic supercell.


 Subroutine GETGRP returns: Found 16 space group operations
 (whereof  8 operations were pure point group operations)
 out of a pool of 48 trial point group operations.


The magnetic configuration has the point symmetry D_2h.
 The point group associated with its full space group is D_4h.


 Subroutine INISYM returns: Found 16 space group operations
 (whereof  8 operations are pure point group operations),
 and found     1 'primitive' translations



 KPOINTS: k-points                                

Automatic generation of k-mesh.
Space group operators:
 irot       det(A)        alpha          n_x          n_y          n_z        tau_x        tau_y        tau_z
    1     1.000000     0.000001     1.000000     0.000000     0.000000     0.000000     0.000000     0.000000
    2    -1.000000     0.000001     1.000000     0.000000     0.000000     0.000000     0.000000     0.000000
    3     1.000000   180.000000     0.000000     0.000000     1.000000     0.000000     0.000000     0.000000
    4    -1.000000   180.000000     0.000000     0.000000     1.000000     0.000000     0.000000     0.000000
    5     1.000000   180.000000     1.000000     0.000000     0.000000     0.000000     0.000000     0.000000
    6    -1.000000   180.000000     1.000000     0.000000     0.000000     0.000000     0.000000     0.000000
    7     1.000000   180.000000     0.000000     1.000000     0.000000     0.000000     0.000000     0.000000
    8    -1.000000   180.000000     0.000000     1.000000     0.000000     0.000000     0.000000     0.000000
    9     1.000000    90.000000     0.000000     0.000000    -1.000000     0.500000     0.500000     0.000000
   10    -1.000000    90.000000     0.000000     0.000000    -1.000000     0.500000     0.500000     0.000000
   11     1.000000    90.000000     0.000000     0.000000     1.000000     0.500000     0.500000     0.000000
   12    -1.000000    90.000000     0.000000     0.000000     1.000000     0.500000     0.500000     0.000000
   13     1.000000   180.000000     0.707107     0.707107     0.000000     0.500000     0.500000     0.000000
   14    -1.000000   180.000000     0.707107     0.707107     0.000000     0.500000     0.500000     0.000000
   15     1.000000   180.000000     0.707107    -0.707107     0.000000     0.500000     0.500000     0.000000
   16    -1.000000   180.000000     0.707107    -0.707107     0.000000     0.500000     0.500000     0.000000
 
 Subroutine IBZKPT returns following result:
 ===========================================
 
 Found     40 irreducible k-points:
 
 Following reciprocal coordinates:
            Coordinates               Weight
  0.000000  0.000000  0.000000      1.000000
  0.142857  0.000000  0.000000      4.000000
  0.285714  0.000000  0.000000      4.000000
  0.428571  0.000000  0.000000      4.000000
  0.142857  0.142857  0.000000      4.000000
  0.285714  0.142857  0.000000      8.000000
  0.428571  0.142857  0.000000      8.000000
  0.285714  0.285714  0.000000      4.000000
  0.428571  0.285714  0.000000      8.000000
  0.428571  0.428571  0.000000      4.000000
  0.000000  0.000000  0.142857      2.000000
  0.142857  0.000000  0.142857      8.000000
  0.285714  0.000000  0.142857      8.000000
  0.428571  0.000000  0.142857      8.000000
  0.142857  0.142857  0.142857      8.000000
  0.285714  0.142857  0.142857     16.000000
  0.428571  0.142857  0.142857     16.000000
  0.285714  0.285714  0.142857      8.000000
  0.428571  0.285714  0.142857     16.000000
  0.428571  0.428571  0.142857      8.000000
  0.000000  0.000000  0.285714      2.000000
  0.142857  0.000000  0.285714      8.000000
  0.285714  0.000000  0.285714      8.000000
  0.428571  0.000000  0.285714      8.000000
  0.142857  0.142857  0.285714      8.000000
  0.285714  0.142857  0.285714     16.000000
  0.428571  0.142857  0.285714     16.000000
  0.285714  0.285714  0.285714      8.000000
  0.428571  0.285714  0.285714     16.000000
  0.428571  0.428571  0.285714      8.000000
  0.000000  0.000000  0.428571      2.000000
  0.142857  0.000000  0.428571      8.000000
  0.285714  0.000000  0.428571      8.000000
  0.428571  0.000000  0.428571      8.000000
  0.142857  0.142857  0.428571      8.000000
  0.285714  0.142857  0.428571     16.000000
  0.428571  0.142857  0.428571     16.000000
  0.285714  0.285714  0.428571      8.000000
  0.428571  0.285714  0.428571     16.000000
  0.428571  0.428571  0.428571      8.000000
 
 Following cartesian coordinates:
            Coordinates               Weight
  0.000000  0.000000  0.000000      1.000000
  0.137950  0.000000  0.000000      4.000000
  0.275899  0.000000  0.000000      4.000000
  0.413849  0.000000  0.000000      4.000000
  0.137950  0.137950  0.000000      4.000000
  0.275899  0.137950  0.000000      8.000000
  0.413849  0.137950  0.000000      8.000000
  0.275899  0.275899  0.000000      4.000000
  0.413849  0.275899  0.000000      8.000000
  0.413849  0.413849  0.000000      4.000000
  0.000000  0.000000  0.137950      2.000000
  0.137950  0.000000  0.137950      8.000000
  0.275899  0.000000  0.137950      8.000000
  0.413849  0.000000  0.137950      8.000000
  0.137950  0.137950  0.137950      8.000000
  0.275899  0.137950  0.137950     16.000000
  0.413849  0.137950  0.137950     16.000000
  0.275899  0.275899  0.137950      8.000000
  0.413849  0.275899  0.137950     16.000000
  0.413849  0.413849  0.137950      8.000000
  0.000000  0.000000  0.275899      2.000000
  0.137950  0.000000  0.275899      8.000000
  0.275899  0.000000  0.275899      8.000000
  0.413849  0.000000  0.275899      8.000000
  0.137950  0.137950  0.275899      8.000000
  0.275899  0.137950  0.275899     16.000000
  0.413849  0.137950  0.275899     16.000000
  0.275899  0.275899  0.275899      8.000000
  0.413849  0.275899  0.275899     16.000000
  0.413849  0.413849  0.275899      8.000000
  0.000000  0.000000  0.413849      2.000000
  0.137950  0.000000  0.413849      8.000000
  0.275899  0.000000  0.413849      8.000000
  0.413849  0.000000  0.413849      8.000000
  0.137950  0.137950  0.413849      8.000000
  0.275899  0.137950  0.413849     16.000000
  0.413849  0.137950  0.413849     16.000000
  0.275899  0.275899  0.413849      8.000000
  0.413849  0.275899  0.413849     16.000000
  0.413849  0.413849  0.413849      8.000000
 


--------------------------------------------------------------------------------------------------------




 Dimension of arrays:
   k-points           NKPTS =     40   k-points in BZ     NKDIM =     40   number of bands    NBANDS=     84
   number of dos      NEDOS =    301   number of ions     NIONS =     16
   non local maximal  LDIM  =      6   non local SUM 2l+1 LMDIM =     18
   total plane-waves  NPLWV =  46656
   max r-space proj   IRMAX =   4035   max aug-charges    IRDMAX=  24996
   dimension x,y,z NGX =    36 NGY =   36 NGZ =   36
   dimension x,y,z NGXF=    72 NGYF=   72 NGZF=   72
   support grid    NGXF=    72 NGYF=   72 NGZF=   72
   ions per type =               8   6   2
   NGX,Y,Z   is equivalent  to a cutoff of  10.03, 10.03, 10.03 a.u.
   NGXF,Y,Z  is equivalent  to a cutoff of  20.07, 20.07, 20.07 a.u.

 SYSTEM =  Testrun for NiMnIn                      
 POSCAR =  Ni2MnIn                                 

 Startparameter for this run:
   NWRITE =      2    write-flag & timer
   PREC   = normal    normal or accurate (medium, high low for compatibility)
   ISTART =      0    job   : 0-new  1-cont  2-samecut
   ICHARG =      2    charge: 1-file 2-atom 10-const
   ISPIN  =      2    spin polarized calculation?
   LNONCOLLINEAR =      F non collinear calculations
   LSORBIT =      F    spin-orbit coupling
   INIWAV =      1    electr: 0-lowe 1-rand  2-diag
   LASPH  =      F    aspherical Exc in radial PAW
   METAGGA=      F    non-selfconsistent MetaGGA calc.

 Electronic Relaxation 1
   ENCUT  =  550.0 eV  40.42 Ry    6.36 a.u.  11.41 11.41 11.41*2*pi/ulx,y,z
   ENINI  =  550.0     initial cutoff
   ENAUG  =  544.6 eV  augmentation charge cutoff
   NELM   =     60;   NELMIN=  2; NELMDL= -5     # of ELM steps 
   EDIFF  = 0.1E-04   stopping-criterion for ELM
   LREAL  =      T    real-space projection
   NLSPLINE    = F    spline interpolate recip. space projectors
   LCOMPAT=      F    compatible to vasp.4.4
   GGA_COMPAT  = T    GGA compatible to vasp.4.4-vasp.4.6
   LMAXPAW     = -100 max onsite density
   LMAXMIX     =    2 max onsite mixed and CHGCAR
   VOSKOWN=      0    Vosko Wilk Nusair interpolation
   ROPT   =   -0.00050  -0.00050  -0.00050
 Ionic relaxation
   EDIFFG = -.1E-01   stopping-criterion for IOM
   NSW    =   1000    number of steps for IOM
   NBLOCK =      1;   KBLOCK =   1000    inner block; outer block 
   IBRION =      2    ionic relax: 0-MD 1-quasi-New 2-CG
   NFREE  =      1    steps in history (QN), initial steepest desc. (CG)
   ISIF   =      2    stress and relaxation
   IWAVPR =     11    prediction:  0-non 1-charg 2-wave 3-comb
   ISYM   =      2    0-nonsym 1-usesym 2-fastsym
   LCORR  =      T    Harris-Foulkes like correction to forces

   POTIM  = 0.5000    time-step for ionic-motion
   TEIN   =    0.0    initial temperature
   TEBEG  =    0.0;   TEEND  =   0.0 temperature during run
   SMASS  =  -3.00    Nose mass-parameter (am)
   estimated Nose-frequenzy (Omega)   =  0.10E-29 period in steps =****** mass=  -0.813E-27a.u.
   SCALEE = 1.0000    scale energy and forces
   NPACO  =    256;   APACO  = 16.0  distance and # of slots for P.C.
   PSTRESS=    0.0 pullay stress

  Mass of Ions in am
   POMASS =  58.69 54.94114.82
  Ionic Valenz
   ZVAL   =  10.00  7.00  3.00
  Atomic Wigner-Seitz radii
   RWIGS  =  -1.00 -1.00 -1.00
  virtual crystal weights 
   VCA    =   1.00  1.00  1.00
   NELECT =     128.0000    total number of electrons
   NUPDOWN=      -1.0000    fix difference up-down

 DOS related values:
   EMIN   =  10.00;   EMAX   =-10.00  energy-range for DOS
   EFERMI =   0.00
   ISMEAR =     0;   SIGMA  =   0.02  broadening in eV -4-tet -1-fermi 0-gaus

 Electronic relaxation 2 (details)
   IALGO  =     68    algorithm
   LDIAG  =      T    sub-space diagonalisation (order eigenvalues)
   LSUBROT=      F    optimize rotation matrix (better conditioning)
   TURBO    =      0    0=normal 1=particle mesh
   IRESTART =      0    0=no restart 2=restart with 2 vectors
   NREBOOT  =      0    no. of reboots
   NMIN     =      0    reboot dimension
   EREF     =   0.00    reference energy to select bands
   IMIX   =      4    mixing-type and parameters
     AMIX     =   0.40;   BMIX     =  1.00
     AMIX_MAG =   1.60;   BMIX_MAG =  1.00
     AMIN     =   0.10
     WC   =   100.;   INIMIX=   1;  MIXPRE=   1;  MAXMIX= -45

 Intra band minimization:
   WEIMIN = 0.0010     energy-eigenvalue tresh-hold
   EBREAK =  0.30E-07  absolut break condition
   DEPER  =   0.30     relativ break condition  

   TIME   =   0.40     timestep for ELM

  volume/ion in A,a.u.               =      13.26        89.51
  Fermi-wavevector in a.u.,A,eV,Ry     =   1.383165  2.613804 26.029938  1.913146
  Thomas-Fermi vector in A             =   2.507789

 Write flags
   LWAVE        =      F    write WAVECAR
   LDOWNSAMPLE  =      F    k-point downsampling of WAVECAR
   LCHARG       =      T    write CHGCAR
   LVTOT        =      F    write LOCPOT, total local potential
   LVHAR        =      F    write LOCPOT, Hartree potential only
   LELF         =      F    write electronic localiz. function (ELF)
   LORBIT       =     11    0 simple, 1 ext, 2 COOP (PROOUT), +10 PAW based schemes


 Dipole corrections
   LMONO  =      F    monopole corrections only (constant potential shift)
   LDIPOL =      F    correct potential (dipole corrections)
   IDIPOL =      0    1-x, 2-y, 3-z, 4-all directions 
   EPSILON=  1.0000000 bulk dielectric constant

 Exchange correlation treatment:
   GGA     =    --    GGA type
   LEXCH   =     8    internal setting for exchange type
   VOSKOWN=      0    Vosko Wilk Nusair interpolation
   LHFCALC =     F    Hartree Fock is set to
   LHFONE  =     F    Hartree Fock one center treatment
   AEXX    =    0.0000 exact exchange contribution

 Linear response parameters
   LEPSILON=     F    determine dielectric tensor
   LRPA    =     F    only Hartree local field effects (RPA)
   LNABLA  =     F    use nabla operator in PAW spheres
   LVEL    =     F    velocity operator in full k-point grid
   LINTERFAST=   F  fast interpolation
   KINTER  =     0    interpolate to denser k-point grid
   CSHIFT  =0.1000    complex shift for real part using Kramers Kronig
   OMEGAMAX=  -1.0    maximum frequency
   DEG_THRESHOLD= 0.2000000E-02 threshold for treating states as degnerate
   RTIME   =   -0.100 relaxation time in fs
  (WPLASMAI=    0.000 imaginary part of plasma frequency in eV, 0.658/RTIME)
   DFIELD  = 0.0000000 0.0000000 0.0000000 field for delta impulse in time

 Orbital magnetization related:
   ORBITALMAG=     F  switch on orbital magnetization
   LCHIMAG   =     F  perturbation theory with respect to B field
   DQ        =  0.001000  dq finite difference perturbation B field
   LLRAUG    =     F  two centre corrections for induced B field



--------------------------------------------------------------------------------------------------------


 conjugate gradient relaxation of ions
 charge density and potential will be updated during run
 spin polarized calculation
 RMM-DIIS sequential band-by-band and
  variant of blocked Davidson during initial phase
 perform sub-space diagonalisation
    before iterative eigenvector-optimisation
 modified Broyden-mixing scheme, WC =      100.0
 initial mixing is a Kerker type mixing with AMIX =  0.4000 and BMIX =      1.0000
 Hartree-type preconditioning will be used
 using additional bands           20
 real space projection scheme for non local part
 use partial core corrections
 calculate Harris-corrections to forces   (improved forces if not selfconsistent)
 use gradient corrections 
 use of overlap-Matrix (Vanderbilt PP)
 Gauss-broadening in eV      SIGMA  =   0.02


--------------------------------------------------------------------------------------------------------


  energy-cutoff  :      550.00
  volume of cell :      212.23
      direct lattice vectors                 reciprocal lattice vectors
     5.964912034  0.000000000  0.000000000     0.167647066  0.000000000  0.000000000
     0.000000000  5.964912034  0.000000000     0.000000000  0.167647066  0.000000000
     0.000000000  0.000000000  5.964912034     0.000000000  0.000000000  0.167647066

  length of vectors
     5.964912034  5.964912034  5.964912034     0.167647066  0.167647066  0.167647066



 k-points in units of 2pi/SCALE and weight: k-points                                
   0.00000000  0.00000000  0.00000000       0.003
   0.13794959  0.00000000  0.00000000       0.012
   0.27589917  0.00000000  0.00000000       0.012
   0.41384876  0.00000000  0.00000000       0.012
   0.13794959  0.13794959  0.00000000       0.012
   0.27589917  0.13794959  0.00000000       0.023
   0.41384876  0.13794959  0.00000000       0.023
   0.27589917  0.27589917  0.00000000       0.012
   0.41384876  0.27589917  0.00000000       0.023
   0.41384876  0.41384876  0.00000000       0.012
   0.00000000  0.00000000  0.13794959       0.006
   0.13794959  0.00000000  0.13794959       0.023
   0.27589917  0.00000000  0.13794959       0.023
   0.41384876  0.00000000  0.13794959       0.023
   0.13794959  0.13794959  0.13794959       0.023
   0.27589917  0.13794959  0.13794959       0.047
   0.41384876  0.13794959  0.13794959       0.047
   0.27589917  0.27589917  0.13794959       0.023
   0.41384876  0.27589917  0.13794959       0.047
   0.41384876  0.41384876  0.13794959       0.023
   0.00000000  0.00000000  0.27589917       0.006
   0.13794959  0.00000000  0.27589917       0.023
   0.27589917  0.00000000  0.27589917       0.023
   0.41384876  0.00000000  0.27589917       0.023
   0.13794959  0.13794959  0.27589917       0.023
   0.27589917  0.13794959  0.27589917       0.047
   0.41384876  0.13794959  0.27589917       0.047
   0.27589917  0.27589917  0.27589917       0.023
   0.41384876  0.27589917  0.27589917       0.047
   0.41384876  0.41384876  0.27589917       0.023
   0.00000000  0.00000000  0.41384876       0.006
   0.13794959  0.00000000  0.41384876       0.023
   0.27589917  0.00000000  0.41384876       0.023
   0.41384876  0.00000000  0.41384876       0.023
   0.13794959  0.13794959  0.41384876       0.023
   0.27589917  0.13794959  0.41384876       0.047
   0.41384876  0.13794959  0.41384876       0.047
   0.27589917  0.27589917  0.41384876       0.023
   0.41384876  0.27589917  0.41384876       0.047
   0.41384876  0.41384876  0.41384876       0.023

 k-points in reciprocal lattice and weights: k-points                                
   0.00000000  0.00000000  0.00000000       0.003
   0.14285714  0.00000000  0.00000000       0.012
   0.28571429  0.00000000  0.00000000       0.012
   0.42857143  0.00000000  0.00000000       0.012
   0.14285714  0.14285714  0.00000000       0.012
   0.28571429  0.14285714  0.00000000       0.023
   0.42857143  0.14285714  0.00000000       0.023
   0.28571429  0.28571429  0.00000000       0.012
   0.42857143  0.28571429  0.00000000       0.023
   0.42857143  0.42857143  0.00000000       0.012
   0.00000000  0.00000000  0.14285714       0.006
   0.14285714  0.00000000  0.14285714       0.023
   0.28571429  0.00000000  0.14285714       0.023
   0.42857143  0.00000000  0.14285714       0.023
   0.14285714  0.14285714  0.14285714       0.023
   0.28571429  0.14285714  0.14285714       0.047
   0.42857143  0.14285714  0.14285714       0.047
   0.28571429  0.28571429  0.14285714       0.023
   0.42857143  0.28571429  0.14285714       0.047
   0.42857143  0.42857143  0.14285714       0.023
   0.00000000  0.00000000  0.28571429       0.006
   0.14285714  0.00000000  0.28571429       0.023
   0.28571429  0.00000000  0.28571429       0.023
   0.42857143  0.00000000  0.28571429       0.023
   0.14285714  0.14285714  0.28571429       0.023
   0.28571429  0.14285714  0.28571429       0.047
   0.42857143  0.14285714  0.28571429       0.047
   0.28571429  0.28571429  0.28571429       0.023
   0.42857143  0.28571429  0.28571429       0.047
   0.42857143  0.42857143  0.28571429       0.023
   0.00000000  0.00000000  0.42857143       0.006
   0.14285714  0.00000000  0.42857143       0.023
   0.28571429  0.00000000  0.42857143       0.023
   0.42857143  0.00000000  0.42857143       0.023
   0.14285714  0.14285714  0.42857143       0.023
   0.28571429  0.14285714  0.42857143       0.047
   0.42857143  0.14285714  0.42857143       0.047
   0.28571429  0.28571429  0.42857143       0.023
   0.42857143  0.28571429  0.42857143       0.047
   0.42857143  0.42857143  0.42857143       0.023

 position of ions in fractional coordinates (direct lattice) 
   0.25007514  0.24992486  0.26866163
   0.74992486  0.24992486  0.26866163
   0.25007514  0.75007514  0.26866163
   0.74992486  0.75007514  0.26866163
   0.25007514  0.24992486  0.73133837
   0.74992486  0.24992486  0.73133837
   0.25007514  0.75007514  0.73133837
   0.74992486  0.75007514  0.73133837
   0.50000000  0.00000000  0.00000000
   0.00000000  0.50000000  0.00000000
   0.00000000  0.00000000  0.50000000
   0.50000000  0.00000000  0.50000000
   0.50000000  0.50000000  0.50000000
   0.00000000  0.50000000  0.50000000
   0.00000000  0.00000000  0.00000000
   0.50000000  0.50000000  0.00000000

 position of ions in cartesian coordinates  (Angst):
   1.49167620  1.49077981  1.60254296
   4.47323583  1.49077981  1.60254296
   1.49167620  4.47413222  1.60254296
   4.47323583  4.47413222  1.60254296
   1.49167620  1.49077981  4.36236907
   4.47323583  1.49077981  4.36236907
   1.49167620  4.47413222  4.36236907
   4.47323583  4.47413222  4.36236907
   2.98245602  0.00000000  0.00000000
   0.00000000  2.98245602  0.00000000
   0.00000000  0.00000000  2.98245602
   2.98245602  0.00000000  2.98245602
   2.98245602  2.98245602  2.98245602
   0.00000000  2.98245602  2.98245602
   0.00000000  0.00000000  0.00000000
   2.98245602  2.98245602  0.00000000



--------------------------------------------------------------------------------------------------------


 k-point  1 :   0.0000 0.0000 0.0000  plane waves:    6235
 k-point  2 :   0.1429 0.0000 0.0000  plane waves:    6211
 k-point  3 :   0.2857 0.0000 0.0000  plane waves:    6227
 k-point  4 :   0.4286 0.0000 0.0000  plane waves:    6222
 k-point  5 :   0.1429 0.1429 0.0000  plane waves:    6226
 k-point  6 :   0.2857 0.1429 0.0000  plane waves:    6226
 k-point  7 :   0.4286 0.1429 0.0000  plane waves:    6222
 k-point  8 :   0.2857 0.2857 0.0000  plane waves:    6222
 k-point  9 :   0.4286 0.2857 0.0000  plane waves:    6210
 k-point 10 :   0.4286 0.4286 0.0000  plane waves:    6220
 k-point 11 :   0.0000 0.0000 0.1429  plane waves:    6211
 k-point 12 :   0.1429 0.0000 0.1429  plane waves:    6226
 k-point 13 :   0.2857 0.0000 0.1429  plane waves:    6226
 k-point 14 :   0.4286 0.0000 0.1429  plane waves:    6222
 k-point 15 :   0.1429 0.1429 0.1429  plane waves:    6235
 k-point 16 :   0.2857 0.1429 0.1429  plane waves:    6222
 k-point 17 :   0.4286 0.1429 0.1429  plane waves:    6231
 k-point 18 :   0.2857 0.2857 0.1429  plane waves:    6214
 k-point 19 :   0.4286 0.2857 0.1429  plane waves:    6211
 k-point 20 :   0.4286 0.4286 0.1429  plane waves:    6217
 k-point 21 :   0.0000 0.0000 0.2857  plane waves:    6227
 k-point 22 :   0.1429 0.0000 0.2857  plane waves:    6226
 k-point 23 :   0.2857 0.0000 0.2857  plane waves:    6222
 k-point 24 :   0.4286 0.0000 0.2857  plane waves:    6210
 k-point 25 :   0.1429 0.1429 0.2857  plane waves:    6222
 k-point 26 :   0.2857 0.1429 0.2857  plane waves:    6214
 k-point 27 :   0.4286 0.1429 0.2857  plane waves:    6211
 k-point 28 :   0.2857 0.2857 0.2857  plane waves:    6217
 k-point 29 :   0.4286 0.2857 0.2857  plane waves:    6220
 k-point 30 :   0.4286 0.4286 0.2857  plane waves:    6200
 k-point 31 :   0.0000 0.0000 0.4286  plane waves:    6222
 k-point 32 :   0.1429 0.0000 0.4286  plane waves:    6222
 k-point 33 :   0.2857 0.0000 0.4286  plane waves:    6210
 k-point 34 :   0.4286 0.0000 0.4286  plane waves:    6220
 k-point 35 :   0.1429 0.1429 0.4286  plane waves:    6231
 k-point 36 :   0.2857 0.1429 0.4286  plane waves:    6211
 k-point 37 :   0.4286 0.1429 0.4286  plane waves:    6217
 k-point 38 :   0.2857 0.2857 0.4286  plane waves:    6220
 k-point 39 :   0.4286 0.2857 0.4286  plane waves:    6200
 k-point 40 :   0.4286 0.4286 0.4286  plane waves:    6167

 maximum and minimum number of plane-waves per node :      6235     6167

 maximum number of plane-waves:      6235
 maximum index in each direction: 
   IXMAX=   11   IYMAX=   11   IZMAX=   11
   IXMIN=  -11   IYMIN=  -11   IZMIN=  -11


 serial   3D FFT for wavefunctions
 parallel 3D FFT for charge:
    minimum data exchange during FFTs selected (reduces bandwidth)


 total amount of memory used by VASP MPI-rank0   103604. kBytes
=======================================================================

   base      :      30000. kBytes
   nonlr-proj:       6775. kBytes
   fftplans  :       1269. kBytes
   grid      :       6573. kBytes
   one-center:        497. kBytes
   wavefun   :      58490. kBytes

     INWAV:  cpu time    0.0000: real time    0.0000
 Broyden mixing: mesh for mixing (old mesh)
   NGX = 23   NGY = 23   NGZ = 23
  (NGX  = 72   NGY  = 72   NGZ  = 72)
  gives a total of  12167 points

 initial charge density was supplied:
 charge density of overlapping atoms calculated
 number of electron     128.0000000 magnetization      16.8000000
 keeping initial charge density in first step


--------------------------------------------------------------------------------------------------------


 Maximum index for non-local projection operator         3887
 Maximum index for augmentation-charges         2111 (set IRDMAX)


--------------------------------------------------------------------------------------------------------


 First call to EWALD:  gamma=   0.297
 Maximum number of real-space cells 3x 3x 3
 Maximum number of reciprocal cells 3x 3x 3

    FEWALD:  cpu time    0.0021: real time    0.0021


--------------------------------------- Iteration      1(   1)  ---------------------------------------


    POTLOK:  cpu time    0.1155: real time    0.1174
    SETDIJ:  cpu time    0.0380: real time    0.0380
     EDDAV:  cpu time   23.4459: real time   23.4729
       DOS:  cpu time    0.0037: real time    0.0038
    --------------------------------------------
      LOOP:  cpu time   23.6030: real time   23.6321

 eigenvalue-minimisations  : 13440
 total energy-change (2. order) : 0.1068445E+04  (-0.5438613E+04)
 number of electron     128.0000000 magnetization      16.8000000
 augmentation part      128.0000000 magnetization      16.8000000

 Free energy of the ion-electron system (eV)
  ---------------------------------------------------
  alpha Z        PSCENC =       530.19451033
  Ewald energy   TEWEN  =     -9276.00892915
  -Hartree energ DENC   =     -3146.46517778
  -exchange      EXHF   =         0.00000000
  -V(xc)+E(xc)   XCENC  =        78.42575931
  PAW double counting   =     10320.96726947   -10647.99417394
  entropy T*S    EENTRO =        -0.00165927
  eigenvalues    EBANDS =      1979.86550754
  atomic energy  EATOM  =     11229.46195210
  Solvation  Ediel_sol  =         0.00000000
  ---------------------------------------------------
  free energy    TOTEN  =      1068.44505860 eV

  energy without entropy =     1068.44671788  energy(sigma->0) =     1068.44588824


--------------------------------------------------------------------------------------------------------




--------------------------------------- Iteration      1(   2)  ---------------------------------------


     EDDAV:  cpu time   24.3546: real time   24.3953
       DOS:  cpu time    0.0033: real time    0.0034
    --------------------------------------------
      LOOP:  cpu time   24.3579: real time   24.3987

 eigenvalue-minimisations  : 13440
 total energy-change (2. order) :-0.1066818E+04  (-0.1032813E+04)
 number of electron     128.0000000 magnetization      16.8000000
 augmentation part      128.0000000 magnetization      16.8000000

 Free energy of the ion-electron system (eV)
  ---------------------------------------------------
  alpha Z        PSCENC =       530.19451033
  Ewald energy   TEWEN  =     -9276.00892915
  -Hartree energ DENC   =     -3146.46517778
  -exchange      EXHF   =         0.00000000
  -V(xc)+E(xc)   XCENC  =        78.42575931
  PAW double counting   =     10320.96726947   -10647.99417394
  entropy T*S    EENTRO =        -0.00121887
  eigenvalues    EBANDS =       913.04684065
  atomic energy  EATOM  =     11229.46195210
  Solvation  Ediel_sol  =         0.00000000
  ---------------------------------------------------
  free energy    TOTEN  =         1.62683213 eV

  energy without entropy =        1.62805099  energy(sigma->0) =        1.62744156


--------------------------------------------------------------------------------------------------------




--------------------------------------- Iteration      1(   3)  ---------------------------------------


     EDDAV:  cpu time   25.7908: real time   25.8239
       DOS:  cpu time    0.0036: real time    0.0037
    --------------------------------------------
      LOOP:  cpu time   25.7944: real time   25.8276

 eigenvalue-minimisations  : 15180
 total energy-change (2. order) :-0.1108559E+03  (-0.9863593E+02)
 number of electron     128.0000000 magnetization      16.8000000
 augmentation part      128.0000000 magnetization      16.8000000

 Free energy of the ion-electron system (eV)
  ---------------------------------------------------
  alpha Z        PSCENC =       530.19451033
  Ewald energy   TEWEN  =     -9276.00892915
  -Hartree energ DENC   =     -3146.46517778
  -exchange      EXHF   =         0.00000000
  -V(xc)+E(xc)   XCENC  =        78.42575931
  PAW double counting   =     10320.96726947   -10647.99417394
  entropy T*S    EENTRO =        -0.00359756
  eigenvalues    EBANDS =       802.19329228
  atomic energy  EATOM  =     11229.46195210
  Solvation  Ediel_sol  =         0.00000000
  ---------------------------------------------------
  free energy    TOTEN  =      -109.22909494 eV

  energy without entropy =     -109.22549738  energy(sigma->0) =     -109.22729616


--------------------------------------------------------------------------------------------------------




--------------------------------------- Iteration      1(   4)  ---------------------------------------


     EDDAV:  cpu time   32.5661: real time   32.6219
       DOS:  cpu time    0.0037: real time    0.0038
    --------------------------------------------
      LOOP:  cpu time   32.5698: real time   32.6258

 eigenvalue-minimisations  : 20040
 total energy-change (2. order) :-0.6848297E+01  (-0.6375209E+01)
 number of electron     128.0000000 magnetization      16.8000000
 augmentation part      128.0000000 magnetization      16.8000000

 Free energy of the ion-electron system (eV)
  ---------------------------------------------------
  alpha Z        PSCENC =       530.19451033
  Ewald energy   TEWEN  =     -9276.00892915
  -Hartree energ DENC   =     -3146.46517778
  -exchange      EXHF   =         0.00000000
  -V(xc)+E(xc)   XCENC  =        78.42575931
  PAW double counting   =     10320.96726947   -10647.99417394
  entropy T*S    EENTRO =        -0.00469305
  eigenvalues    EBANDS =       795.34609028
  atomic energy  EATOM  =     11229.46195210
  Solvation  Ediel_sol  =         0.00000000
  ---------------------------------------------------
  free energy    TOTEN  =      -116.07739243 eV

  energy without entropy =     -116.07269938  energy(sigma->0) =     -116.07504591


--------------------------------------------------------------------------------------------------------




--------------------------------------- Iteration      1(   5)  ---------------------------------------


     EDDAV:  cpu time   31.5597: real time   31.6159
       DOS:  cpu time    0.0038: real time    0.0040
    CHARGE:  cpu time    0.6788: real time    0.6805
    MIXING:  cpu time    0.0016: real time    0.0016
    --------------------------------------------
      LOOP:  cpu time   32.2439: real time   32.3020

 eigenvalue-minimisations  : 19368
 total energy-change (2. order) :-0.2411399E+00  (-0.2396125E+00)
 number of electron     127.9999915 magnetization      14.1270194
 augmentation part       60.6583629 magnetization       9.0870518

 Broyden mixing:
  rms(total) = 0.34497E+01    rms(broyden)= 0.34496E+01
  rms(prec ) = 0.53129E+01
  weight for this iteration     100.00

 Free energy of the ion-electron system (eV)
  ---------------------------------------------------
  alpha Z        PSCENC =       530.19451033
  Ewald energy   TEWEN  =     -9276.00892915
  -Hartree energ DENC   =     -3146.46517778
  -exchange      EXHF   =         0.00000000
  -V(xc)+E(xc)   XCENC  =        78.42575931
  PAW double counting   =     10320.96726947   -10647.99417394
  entropy T*S    EENTRO =        -0.00460357
  eigenvalues    EBANDS =       795.10486093
  atomic energy  EATOM  =     11229.46195210
  Solvation  Ediel_sol  =         0.00000000
  ---------------------------------------------------
  free energy    TOTEN  =      -116.31853230 eV

  energy without entropy =     -116.31392873  energy(sigma->0) =     -116.31623051


--------------------------------------------------------------------------------------------------------




--------------------------------------- Iteration      1(   6)  ---------------------------------------


    POTLOK:  cpu time    0.1040: real time    0.1047
    SETDIJ:  cpu time    0.0381: real time    0.0381
    EDDIAG:  cpu time    3.3386: real time    3.3428
  RMM-DIIS:  cpu time   10.7174: real time   10.7304
    ORTHCH:  cpu time    0.6346: real time    0.6353
       DOS:  cpu time    0.0039: real time    0.0041
    CHARGE:  cpu time    0.6895: real time    0.6902
    MIXING:  cpu time    0.0017: real time    0.0017
    --------------------------------------------
      LOOP:  cpu time   15.5277: real time   15.5473

 eigenvalue-minimisations  : 13440
 total energy-change (2. order) : 0.5954797E+01  (-0.1678093E+02)
 number of electron     128.0000016 magnetization      14.4880991
 augmentation part       69.5074227 magnetization      10.9973134

 Broyden mixing:
  rms(total) = 0.47529E+01    rms(broyden)= 0.47528E+01
  rms(prec ) = 0.64606E+01
  weight for this iteration     100.00

 eigenvalues of (default mixing * dielectric matrix)
  average eigenvalue GAMMA=   0.2051
  0.2051

 Free energy of the ion-electron system (eV)
  ---------------------------------------------------
  alpha Z        PSCENC =       530.19451033
  Ewald energy   TEWEN  =     -9276.00892915
  -Hartree energ DENC   =     -2913.07516983
  -exchange      EXHF   =         0.00000000
  -V(xc)+E(xc)   XCENC  =        66.39952388
  PAW double counting   =     11119.72152237   -11413.06223718
  entropy T*S    EENTRO =        -0.00486040
  eigenvalues    EBANDS =       546.00995234
  atomic energy  EATOM  =     11229.46195210
  Solvation  Ediel_sol  =         0.00000000
  ---------------------------------------------------
  free energy    TOTEN  =      -110.36373554 eV

  energy without entropy =     -110.35887514  energy(sigma->0) =     -110.36130534


--------------------------------------------------------------------------------------------------------




--------------------------------------- Iteration      1(   7)  ---------------------------------------


    POTLOK:  cpu time    0.0993: real time    0.0995
    SETDIJ:  cpu time    0.0362: real time    0.0362
    EDDIAG:  cpu time    3.2909: real time    3.2951
  RMM-DIIS:  cpu time   10.6634: real time   10.6765
    ORTHCH:  cpu time    0.6300: real time    0.6308
       DOS:  cpu time    0.0038: real time    0.0039
    CHARGE:  cpu time    0.6959: real time    0.6966
    MIXING:  cpu time    0.0017: real time    0.0017
    --------------------------------------------
      LOOP:  cpu time   15.4211: real time   15.4405

 eigenvalue-minimisations  : 13457
 total energy-change (2. order) :-0.6914097E+00  (-0.3041559E+01)
 number of electron     127.9999892 magnetization      14.2175558
 augmentation part       70.4210679 magnetization      10.1207460

 Broyden mixing:
  rms(total) = 0.36054E+01    rms(broyden)= 0.36052E+01
  rms(prec ) = 0.63021E+01
  weight for this iteration     100.00

 eigenvalues of (default mixing * dielectric matrix)
  average eigenvalue GAMMA=   0.4144
  0.4144  0.4144

 Free energy of the ion-electron system (eV)
  ---------------------------------------------------
  alpha Z        PSCENC =       530.19451033
  Ewald energy   TEWEN  =     -9276.00892915
  -Hartree energ DENC   =     -2897.38657446
  -exchange      EXHF   =         0.00000000
  -V(xc)+E(xc)   XCENC  =        66.86780790
  PAW double counting   =     11385.39346195   -11683.21712096
  entropy T*S    EENTRO =        -0.00332183
  eigenvalues    EBANDS =       533.64306894
  atomic energy  EATOM  =     11229.46195210
  Solvation  Ediel_sol  =         0.00000000
  ---------------------------------------------------
  free energy    TOTEN  =      -111.05514519 eV

  energy without entropy =     -111.05182336  energy(sigma->0) =     -111.05348428


--------------------------------------------------------------------------------------------------------




--------------------------------------- Iteration      1(   8)  ---------------------------------------


    POTLOK:  cpu time    0.0974: real time    0.0976
    SETDIJ:  cpu time    0.0361: real time    0.0361
    EDDIAG:  cpu time    3.3250: real time    3.3303
  RMM-DIIS:  cpu time   10.6466: real time   10.6602
    ORTHCH:  cpu time    0.6345: real time    0.6353
       DOS:  cpu time    0.0038: real time    0.0040
    CHARGE:  cpu time    0.6921: real time    0.6929
    MIXING:  cpu time    0.0018: real time    0.0018
    --------------------------------------------
      LOOP:  cpu time   15.4373: real time   15.4582

 eigenvalue-minimisations  : 13442
 total energy-change (2. order) : 0.4143785E+01  (-0.2544226E+01)
 number of electron     127.9999981 magnetization      13.6789342
 augmentation part       68.2810936 magnetization      10.8315882

 Broyden mixing:
  rms(total) = 0.30411E+01    rms(broyden)= 0.30410E+01
  rms(prec ) = 0.57995E+01
  weight for this iteration     100.00

 eigenvalues of (default mixing * dielectric matrix)
  average eigenvalue GAMMA=   0.3953
  0.5156  0.5156  0.1547

 Free energy of the ion-electron system (eV)
  ---------------------------------------------------
  alpha Z        PSCENC =       530.19451033
  Ewald energy   TEWEN  =     -9276.00892915
  -Hartree energ DENC   =     -2954.53909391
  -exchange      EXHF   =         0.00000000
  -V(xc)+E(xc)   XCENC  =        70.67761392
  PAW double counting   =     11756.97221179   -12079.61397914
  entropy T*S    EENTRO =        -0.00409475
  eigenvalues    EBANDS =       615.94844873
  atomic energy  EATOM  =     11229.46195210
  Solvation  Ediel_sol  =         0.00000000
  ---------------------------------------------------
  free energy    TOTEN  =      -106.91136007 eV

  energy without entropy =     -106.90726532  energy(sigma->0) =     -106.90931270


--------------------------------------------------------------------------------------------------------




--------------------------------------- Iteration      1(   9)  ---------------------------------------


    POTLOK:  cpu time    0.0976: real time    0.0978
    SETDIJ:  cpu time    0.0364: real time    0.0364
    EDDIAG:  cpu time    3.3402: real time    3.3445
  RMM-DIIS:  cpu time   10.6063: real time   10.6224
    ORTHCH:  cpu time    0.6316: real time    0.6323
       DOS:  cpu time    0.0037: real time    0.0038
    CHARGE:  cpu time    0.7074: real time    0.7082
    MIXING:  cpu time    0.0018: real time    0.0018
    --------------------------------------------
      LOOP:  cpu time   15.4249: real time   15.4472

 eigenvalue-minimisations  : 13580
 total energy-change (2. order) : 0.3035990E+01  (-0.5845051E+00)
 number of electron     127.9999966 magnetization      14.3254684
 augmentation part       67.0373041 magnetization      10.3036183

 Broyden mixing:
  rms(total) = 0.17955E+01    rms(broyden)= 0.17954E+01
  rms(prec ) = 0.28672E+01
  weight for this iteration     100.00

 eigenvalues of (default mixing * dielectric matrix)
  average eigenvalue GAMMA=   0.4552
  0.8810  0.5522  0.2525  0.1351

 Free energy of the ion-electron system (eV)
  ---------------------------------------------------
  alpha Z        PSCENC =       530.19451033
  Ewald energy   TEWEN  =     -9276.00892915
  -Hartree energ DENC   =     -2965.20385779
  -exchange      EXHF   =         0.00000000
  -V(xc)+E(xc)   XCENC  =        71.29146036
  PAW double counting   =     11927.88090372   -12257.74340379
  entropy T*S    EENTRO =        -0.00351789
  eigenvalues    EBANDS =       636.25551239
  atomic energy  EATOM  =     11229.46195210
  Solvation  Ediel_sol  =         0.00000000
  ---------------------------------------------------
  free energy    TOTEN  =      -103.87536972 eV

  energy without entropy =     -103.87185183  energy(sigma->0) =     -103.87361078


--------------------------------------------------------------------------------------------------------




--------------------------------------- Iteration      1(  10)  ---------------------------------------


    POTLOK:  cpu time    0.1097: real time    0.1104
    SETDIJ:  cpu time    0.0379: real time    0.0380
    EDDIAG:  cpu time    3.3970: real time    3.4025
  RMM-DIIS:  cpu time   10.7032: real time   10.7166
    ORTHCH:  cpu time    0.6344: real time    0.6352
       DOS:  cpu time    0.0035: real time    0.0037
    CHARGE:  cpu time    0.7050: real time    0.7059
    MIXING:  cpu time    0.0020: real time    0.0020
    --------------------------------------------
      LOOP:  cpu time   15.5928: real time   15.6143

 eigenvalue-minimisations  : 13450
 total energy-change (2. order) : 0.1003381E+01  (-0.1670213E+00)
 number of electron     127.9999947 magnetization      15.0509767
 augmentation part       67.6698977 magnetization      10.8193508

 Broyden mixing:
  rms(total) = 0.10202E+01    rms(broyden)= 0.10202E+01
  rms(prec ) = 0.12042E+01
  weight for this iteration     100.00

 eigenvalues of (default mixing * dielectric matrix)
  average eigenvalue GAMMA=   0.4657
  0.9703  0.4987  0.4987  0.2214  0.1396

 Free energy of the ion-electron system (eV)
  ---------------------------------------------------
  alpha Z        PSCENC =       530.19451033
  Ewald energy   TEWEN  =     -9276.00892915
  -Hartree energ DENC   =     -2953.03241706
  -exchange      EXHF   =         0.00000000
  -V(xc)+E(xc)   XCENC  =        71.80227853
  PAW double counting   =     12218.61263274   -12552.24714852
  entropy T*S    EENTRO =        -0.00196044
  eigenvalues    EBANDS =       628.34709234
  atomic energy  EATOM  =     11229.46195210
  Solvation  Ediel_sol  =         0.00000000
  ---------------------------------------------------
  free energy    TOTEN  =      -102.87198914 eV

  energy without entropy =     -102.87002870  energy(sigma->0) =     -102.87100892


--------------------------------------------------------------------------------------------------------




--------------------------------------- Iteration      1(  11)  ---------------------------------------


    POTLOK:  cpu time    0.0981: real time    0.0982
    SETDIJ:  cpu time    0.0364: real time    0.0365
    EDDIAG:  cpu time    3.4026: real time    3.4080
  RMM-DIIS:  cpu time   10.8148: real time   10.8281
    ORTHCH:  cpu time    0.6362: real time    0.6379
       DOS:  cpu time    0.0037: real time    0.0039
    CHARGE:  cpu time    0.7133: real time    0.7140
    MIXING:  cpu time    0.0028: real time    0.0028
    --------------------------------------------
      LOOP:  cpu time   15.7078: real time   15.7294

 eigenvalue-minimisations  : 13676
 total energy-change (2. order) :-0.2189331E+00  (-0.4033986E-01)
 number of electron     127.9999951 magnetization      15.7999826
 augmentation part       67.6185113 magnetization      11.5201263

 Broyden mixing:
  rms(total) = 0.69299E+00    rms(broyden)= 0.69298E+00
  rms(prec ) = 0.83713E+00
  weight for this iteration     100.00

 eigenvalues of (default mixing * dielectric matrix)
  average eigenvalue GAMMA=   0.5197
  0.9421  0.6844  0.6844  0.4632  0.2106  0.1337

 Free energy of the ion-electron system (eV)
  ---------------------------------------------------
  alpha Z        PSCENC =       530.19451033
  Ewald energy   TEWEN  =     -9276.00892915
  -Hartree energ DENC   =     -2951.24610915
  -exchange      EXHF   =         0.00000000
  -V(xc)+E(xc)   XCENC  =        73.06338380
  PAW double counting   =     12375.24302041   -12712.02424126
  entropy T*S    EENTRO =        -0.00302564
  eigenvalues    EBANDS =       628.22851637
  atomic energy  EATOM  =     11229.46195210
  Solvation  Ediel_sol  =         0.00000000
  ---------------------------------------------------
  free energy    TOTEN  =      -103.09092221 eV

  energy without entropy =     -103.08789656  energy(sigma->0) =     -103.08940938


--------------------------------------------------------------------------------------------------------




--------------------------------------- Iteration      1(  12)  ---------------------------------------


    POTLOK:  cpu time    0.0979: real time    0.0981
    SETDIJ:  cpu time    0.0363: real time    0.0363
    EDDIAG:  cpu time    3.3788: real time    3.3833
  RMM-DIIS:  cpu time   10.6572: real time   10.6699
    ORTHCH:  cpu time    0.6353: real time    0.6359
       DOS:  cpu time    0.0038: real time    0.0040
    CHARGE:  cpu time    0.7080: real time    0.7088
    MIXING:  cpu time    0.0022: real time    0.0022
    --------------------------------------------
      LOOP:  cpu time   15.5195: real time   15.5384

 eigenvalue-minimisations  : 13515
 total energy-change (2. order) :-0.2211853E+00  (-0.3023126E-01)
 number of electron     127.9999958 magnetization      17.2330408
 augmentation part       67.4855916 magnetization      12.8945648

 Broyden mixing:
  rms(total) = 0.60199E+00    rms(broyden)= 0.60198E+00
  rms(prec ) = 0.80102E+00
  weight for this iteration     100.00

 eigenvalues of (default mixing * dielectric matrix)
  average eigenvalue GAMMA=   0.6679
  1.9142  0.7825  0.7825  0.5708  0.1343  0.2169  0.2740

 Free energy of the ion-electron system (eV)
  ---------------------------------------------------
  alpha Z        PSCENC =       530.19451033
  Ewald energy   TEWEN  =     -9276.00892915
  -Hartree energ DENC   =     -2951.08190129
  -exchange      EXHF   =         0.00000000
  -V(xc)+E(xc)   XCENC  =        74.22096053
  PAW double counting   =     12524.97390548   -12864.98617514
  entropy T*S    EENTRO =        -0.00280864
  eigenvalues    EBANDS =       629.91637830
  atomic energy  EATOM  =     11229.46195210
  Solvation  Ediel_sol  =         0.00000000
  ---------------------------------------------------
  free energy    TOTEN  =      -103.31210749 eV

  energy without entropy =     -103.30929885  energy(sigma->0) =     -103.31070317


--------------------------------------------------------------------------------------------------------




--------------------------------------- Iteration      1(  13)  ---------------------------------------


    POTLOK:  cpu time    0.0986: real time    0.0987
    SETDIJ:  cpu time    0.0363: real time    0.0363
    EDDIAG:  cpu time    3.3941: real time    3.3982
  RMM-DIIS:  cpu time   10.9411: real time   10.9582
    ORTHCH:  cpu time    0.6372: real time    0.6378
       DOS:  cpu time    0.0038: real time    0.0040
    CHARGE:  cpu time    0.7151: real time    0.7158
    MIXING:  cpu time    0.0023: real time    0.0023
    --------------------------------------------
      LOOP:  cpu time   15.8285: real time   15.8513

 eigenvalue-minimisations  : 13853
 total energy-change (2. order) :-0.6235607E-01  (-0.2931694E-01)
 number of electron     127.9999956 magnetization      17.3679944
 augmentation part       67.7557494 magnetization      12.8670001

 Broyden mixing:
  rms(total) = 0.23102E+00    rms(broyden)= 0.23102E+00
  rms(prec ) = 0.37086E+00
  weight for this iteration     100.00

 eigenvalues of (default mixing * dielectric matrix)
  average eigenvalue GAMMA=   0.6919
  2.0516  0.8816  0.8816  0.5477  0.5477  0.1343  0.2158  0.2745

 Free energy of the ion-electron system (eV)
  ---------------------------------------------------
  alpha Z        PSCENC =       530.19451033
  Ewald energy   TEWEN  =     -9276.00892915
  -Hartree energ DENC   =     -2943.13620795
  -exchange      EXHF   =         0.00000000
  -V(xc)+E(xc)   XCENC  =        75.62289510
  PAW double counting   =     12807.90989578   -13151.78574696
  entropy T*S    EENTRO =        -0.00261303
  eigenvalues    EBANDS =       624.36978022
  atomic energy  EATOM  =     11229.46195210
  Solvation  Ediel_sol  =         0.00000000
  ---------------------------------------------------
  free energy    TOTEN  =      -103.37446357 eV

  energy without entropy =     -103.37185054  energy(sigma->0) =     -103.37315705


--------------------------------------------------------------------------------------------------------




--------------------------------------- Iteration      1(  14)  ---------------------------------------


    POTLOK:  cpu time    0.0978: real time    0.0985
    SETDIJ:  cpu time    0.0362: real time    0.0363
    EDDIAG:  cpu time    3.3976: real time    3.4018
  RMM-DIIS:  cpu time   11.1289: real time   11.1438
    ORTHCH:  cpu time    0.6348: real time    0.6355
       DOS:  cpu time    0.0037: real time    0.0039
    CHARGE:  cpu time    0.7136: real time    0.7145
    MIXING:  cpu time    0.0025: real time    0.0026
    --------------------------------------------
      LOOP:  cpu time   16.0151: real time   16.0368

 eigenvalue-minimisations  : 14025
 total energy-change (2. order) : 0.5022595E-02  (-0.9104747E-02)
 number of electron     127.9999957 magnetization      17.4437264
 augmentation part       67.7055277 magnetization      12.8952388

 Broyden mixing:
  rms(total) = 0.18217E+00    rms(broyden)= 0.18216E+00
  rms(prec ) = 0.28485E+00
  weight for this iteration     100.00

 eigenvalues of (default mixing * dielectric matrix)
  average eigenvalue GAMMA=   0.6887
  2.1268  0.9933  0.9933  0.5521  0.5521  0.1343  0.3546  0.2158  0.2762

 Free energy of the ion-electron system (eV)
  ---------------------------------------------------
  alpha Z        PSCENC =       530.19451033
  Ewald energy   TEWEN  =     -9276.00892915
  -Hartree energ DENC   =     -2943.61549284
  -exchange      EXHF   =         0.00000000
  -V(xc)+E(xc)   XCENC  =        75.65830632
  PAW double counting   =     12847.30844669   -13191.83552493
  entropy T*S    EENTRO =        -0.00257947
  eigenvalues    EBANDS =       625.46986998
  atomic energy  EATOM  =     11229.46195210
  Solvation  Ediel_sol  =         0.00000000
  ---------------------------------------------------
  free energy    TOTEN  =      -103.36944097 eV

  energy without entropy =     -103.36686151  energy(sigma->0) =     -103.36815124


--------------------------------------------------------------------------------------------------------




--------------------------------------- Iteration      1(  15)  ---------------------------------------


    POTLOK:  cpu time    0.1002: real time    0.1004
    SETDIJ:  cpu time    0.0370: real time    0.0370
    EDDIAG:  cpu time    3.4144: real time    3.4196
  RMM-DIIS:  cpu time   11.3814: real time   11.3980
    ORTHCH:  cpu time    0.6381: real time    0.6392
       DOS:  cpu time    0.0037: real time    0.0039
    CHARGE:  cpu time    0.7223: real time    0.7228
    MIXING:  cpu time    0.0027: real time    0.0027
    --------------------------------------------
      LOOP:  cpu time   16.2998: real time   16.3235

 eigenvalue-minimisations  : 14320
 total energy-change (2. order) : 0.1154604E-01  (-0.3116487E-02)
 number of electron     127.9999956 magnetization      17.5516266
 augmentation part       67.7452736 magnetization      13.0203383

 Broyden mixing:
  rms(total) = 0.96163E-01    rms(broyden)= 0.96160E-01
  rms(prec ) = 0.13936E+00
  weight for this iteration     100.00

 eigenvalues of (default mixing * dielectric matrix)
  average eigenvalue GAMMA=   0.7397
  2.3550  1.1941  0.9004  0.7356  0.7356  0.5424  0.1343  0.2161  0.2744  0.3096

 Free energy of the ion-electron system (eV)
  ---------------------------------------------------
  alpha Z        PSCENC =       530.19451033
  Ewald energy   TEWEN  =     -9276.00892915
  -Hartree energ DENC   =     -2942.67254200
  -exchange      EXHF   =         0.00000000
  -V(xc)+E(xc)   XCENC  =        75.51298015
  PAW double counting   =     12869.91713772   -13214.40264305
  entropy T*S    EENTRO =        -0.00253459
  eigenvalues    EBANDS =       624.64217356
  atomic energy  EATOM  =     11229.46195210
  Solvation  Ediel_sol  =         0.00000000
  ---------------------------------------------------
  free energy    TOTEN  =      -103.35789494 eV

  energy without entropy =     -103.35536035  energy(sigma->0) =     -103.35662764


--------------------------------------------------------------------------------------------------------




--------------------------------------- Iteration      1(  16)  ---------------------------------------


    POTLOK:  cpu time    0.0979: real time    0.0980
    SETDIJ:  cpu time    0.0363: real time    0.0363
    EDDIAG:  cpu time    3.4184: real time    3.4229
  RMM-DIIS:  cpu time   11.4719: real time   11.4863
    ORTHCH:  cpu time    0.6367: real time    0.6376
       DOS:  cpu time    0.0039: real time    0.0041
    CHARGE:  cpu time    0.7073: real time    0.7081
    MIXING:  cpu time    0.0028: real time    0.0028
    --------------------------------------------
      LOOP:  cpu time   16.3752: real time   16.3960

 eigenvalue-minimisations  : 14360
 total energy-change (2. order) :-0.2890295E-02  (-0.1658873E-02)
 number of electron     127.9999957 magnetization      17.6012572
 augmentation part       67.7318446 magnetization      13.0374552

 Broyden mixing:
  rms(total) = 0.67005E-01    rms(broyden)= 0.67002E-01
  rms(prec ) = 0.97627E-01
  weight for this iteration     100.00

 eigenvalues of (default mixing * dielectric matrix)
  average eigenvalue GAMMA=   0.7302
  2.4628  1.3103  0.8232  0.8232  0.7020  0.6190  0.1343  0.2162  0.2685  0.3366
  0.3366

 Free energy of the ion-electron system (eV)
  ---------------------------------------------------
  alpha Z        PSCENC =       530.19451033
  Ewald energy   TEWEN  =     -9276.00892915
  -Hartree energ DENC   =     -2942.57306400
  -exchange      EXHF   =         0.00000000
  -V(xc)+E(xc)   XCENC  =        75.69046169
  PAW double counting   =     12892.94457050   -13237.68639352
  entropy T*S    EENTRO =        -0.00247698
  eigenvalues    EBANDS =       624.61858381
  atomic energy  EATOM  =     11229.46195210
  Solvation  Ediel_sol  =         0.00000000
  ---------------------------------------------------
  free energy    TOTEN  =      -103.36078523 eV

  energy without entropy =     -103.35830825  energy(sigma->0) =     -103.35954674


--------------------------------------------------------------------------------------------------------




--------------------------------------- Iteration      1(  17)  ---------------------------------------


    POTLOK:  cpu time    0.0978: real time    0.0981
    SETDIJ:  cpu time    0.0363: real time    0.0363
    EDDIAG:  cpu time    3.4378: real time    3.4423
  RMM-DIIS:  cpu time   11.0656: real time   11.0807
    ORTHCH:  cpu time    0.6322: real time    0.6328
       DOS:  cpu time    0.0039: real time    0.0041
    CHARGE:  cpu time    0.7153: real time    0.7159
    MIXING:  cpu time    0.0030: real time    0.0030
    --------------------------------------------
      LOOP:  cpu time   15.9919: real time   16.0132

 eigenvalue-minimisations  : 13882
 total energy-change (2. order) : 0.7262497E-03  (-0.5741419E-03)
 number of electron     127.9999956 magnetization      17.6751188
 augmentation part       67.7630537 magnetization      13.1336854

 Broyden mixing:
  rms(total) = 0.34702E-01    rms(broyden)= 0.34701E-01
  rms(prec ) = 0.46093E-01
  weight for this iteration     100.00

 eigenvalues of (default mixing * dielectric matrix)
  average eigenvalue GAMMA=   0.8158
  2.7006  1.8822  1.0082  1.0082  0.7073  0.7073  0.5412  0.1343  0.2162  0.3231
  0.2697  0.2918

 Free energy of the ion-electron system (eV)
  ---------------------------------------------------
  alpha Z        PSCENC =       530.19451033
  Ewald energy   TEWEN  =     -9276.00892915
  -Hartree energ DENC   =     -2942.04309597
  -exchange      EXHF   =         0.00000000
  -V(xc)+E(xc)   XCENC  =        75.73220967
  PAW double counting   =     12897.96858370   -13242.63876549
  entropy T*S    EENTRO =        -0.00247993
  eigenvalues    EBANDS =       623.97595577
  atomic energy  EATOM  =     11229.46195210
  Solvation  Ediel_sol  =         0.00000000
  ---------------------------------------------------
  free energy    TOTEN  =      -103.36005898 eV

  energy without entropy =     -103.35757905  energy(sigma->0) =     -103.35881902


--------------------------------------------------------------------------------------------------------




--------------------------------------- Iteration      1(  18)  ---------------------------------------


    POTLOK:  cpu time    0.0979: real time    0.0987
    SETDIJ:  cpu time    0.0362: real time    0.0362
    EDDIAG:  cpu time    3.4431: real time    3.4479
  RMM-DIIS:  cpu time   12.1626: real time   12.1793
    ORTHCH:  cpu time    0.6424: real time    0.6433
       DOS:  cpu time    0.0033: real time    0.0035
    CHARGE:  cpu time    0.7222: real time    0.7228
    MIXING:  cpu time    0.0032: real time    0.0032
    --------------------------------------------
      LOOP:  cpu time   17.1109: real time   17.1349

 eigenvalue-minimisations  : 15219
 total energy-change (2. order) :-0.2615370E-03  (-0.2754980E-03)
 number of electron     127.9999957 magnetization      17.6810654
 augmentation part       67.7658915 magnetization      13.1378136

 Broyden mixing:
  rms(total) = 0.10126E-01    rms(broyden)= 0.10125E-01
  rms(prec ) = 0.13607E-01
  weight for this iteration     100.00

 eigenvalues of (default mixing * dielectric matrix)
  average eigenvalue GAMMA=   0.8492
  2.4749  2.4749  1.0596  1.0596  0.7478  0.7478  0.6960  0.5415  0.1343  0.2162
  0.3357  0.2688  0.2824

 Free energy of the ion-electron system (eV)
  ---------------------------------------------------
[...]
         0         1         2         3         4         5         6         7         8         9
 total charge-density along one line

 pseudopotential strength for first ion, spin component:           1
 -1.836   0.001  -0.002  -0.001  -0.000  -2.463   0.001  -0.002
  0.001  -1.831   0.006  -0.003  -0.013   0.001  -2.458   0.006
 -0.002   0.006  -1.909  -0.006   0.000  -0.002   0.006  -2.532
 -0.001  -0.003  -0.006  -1.831  -0.013  -0.001  -0.003  -0.006
 -0.000  -0.013   0.000  -0.013  -1.918  -0.000  -0.012   0.000
 -2.463   0.001  -0.002  -0.001  -0.000  -3.020   0.001  -0.001
  0.001  -2.458   0.006  -0.003  -0.012   0.001  -3.015   0.006
 -0.002   0.006  -2.532  -0.006   0.000  -0.001   0.006  -3.086
 -0.001  -0.003  -0.006  -2.458  -0.012  -0.001  -0.003  -0.006
 -0.000  -0.012   0.000  -0.012  -2.541  -0.000  -0.012   0.000
 -0.001  -0.003  -0.002   0.003   0.000  -0.001  -0.003  -0.001
 -0.003  -0.005  -0.003   0.005   0.000  -0.002  -0.005  -0.003
 -0.002  -0.005   0.000   0.001   0.000  -0.002  -0.005   0.000
  0.001   0.002  -0.011  -0.002   0.000   0.000   0.002  -0.011
  0.002   0.001  -0.000  -0.005   0.000   0.002   0.000  -0.000
 -0.002  -0.003   0.000   0.001   0.000  -0.002  -0.003   0.000
  0.001   0.002  -0.011  -0.002   0.000   0.001   0.002  -0.010
  0.002   0.001  -0.000  -0.003   0.000   0.002   0.001  -0.000
 pseudopotential strength for first ion, spin component:           2
 -1.508   0.002  -0.002  -0.002  -0.000  -2.151   0.002  -0.002
  0.002  -1.516  -0.010  -0.001   0.017   0.002  -2.158  -0.009
 -0.002  -0.010  -1.429   0.010   0.000  -0.002  -0.009  -2.074
 -0.002  -0.001   0.010  -1.516   0.017  -0.002  -0.001   0.009
 -0.000   0.017   0.000   0.017  -1.418  -0.000   0.016   0.000
 -2.151   0.002  -0.002  -0.002  -0.000  -2.723   0.002  -0.002
  0.002  -2.158  -0.009  -0.001   0.016   0.002  -2.730  -0.009
 -0.002  -0.009  -2.074   0.009   0.000  -0.002  -0.009  -2.649
 -0.002  -0.001   0.009  -2.158   0.016  -0.002  -0.001   0.009
 -0.000   0.016   0.000   0.016  -2.064  -0.000   0.015   0.000
 -0.002   0.004   0.002  -0.004   0.000  -0.002   0.004   0.002
 -0.003   0.007   0.004  -0.007   0.000  -0.003   0.007   0.004
  0.002  -0.013   0.000   0.000   0.000   0.002  -0.013   0.000
  0.000  -0.002  -0.014   0.002   0.000   0.000  -0.002  -0.013
 -0.002   0.000  -0.000  -0.013   0.000  -0.002   0.000  -0.000
  0.003  -0.015   0.000   0.001   0.000   0.002  -0.015   0.000
  0.001  -0.003  -0.015   0.003   0.000   0.001  -0.003  -0.014
 -0.003   0.001  -0.000  -0.015   0.000  -0.002   0.001  -0.000
 total augmentation occupancy for first ion, spin component:           1
  2.108   0.011   0.032  -0.011   0.000  -0.582  -0.011  -0.029   0.011   0.000  -0.078   0.028  -0.004   0.041   0.004   0.001
  0.011   2.098  -0.024   0.071   0.026  -0.011  -0.579   0.017  -0.072  -0.022   0.017   0.000   0.024  -0.007   0.042  -0.014
  0.032  -0.024   2.738   0.024   0.000  -0.029   0.017  -1.058  -0.017  -0.000  -0.042   0.003   0.006  -0.069  -0.006   0.000
 -0.011   0.071   0.024   2.098   0.026   0.011  -0.072  -0.017  -0.579  -0.022  -0.017  -0.000   0.042   0.007   0.024  -0.008
 -0.000   0.026   0.000   0.026   2.780  -0.000  -0.023  -0.000  -0.023  -1.084  -0.000  -0.000  -0.003   0.000  -0.003  -0.000
 -0.582  -0.011  -0.029   0.011  -0.000   0.858   0.011   0.016  -0.011   0.000   0.049  -0.018   0.001  -0.024  -0.001  -0.000
 -0.011  -0.579   0.017  -0.072  -0.023   0.011   0.854  -0.013   0.073   0.018  -0.011  -0.000   0.006   0.004  -0.024   0.002
 -0.029   0.017  -1.058  -0.017  -0.000   0.016  -0.013   1.116   0.013  -0.000   0.030  -0.004  -0.004   0.069   0.004   0.000
  0.011  -0.072  -0.017  -0.579  -0.023  -0.011   0.073   0.013   0.854   0.018   0.011   0.000  -0.024  -0.004   0.006   0.006
  0.000  -0.022  -0.000  -0.022  -1.084  -0.000   0.018  -0.000   0.018   1.123  -0.000  -0.000   0.002  -0.000   0.002   0.000
 -0.078   0.017  -0.042  -0.017   0.000   0.049  -0.011   0.030   0.011  -0.000   2.110  -0.277  -0.001   0.059   0.001   0.000
  0.028   0.000   0.003  -0.000  -0.000  -0.018  -0.000  -0.004   0.000   0.000  -0.277   0.046  -0.000   0.002   0.000  -0.000
 -0.004   0.024   0.006   0.042  -0.003   0.001   0.006  -0.004  -0.024   0.002  -0.001  -0.000   0.254   0.000   0.002  -0.026
  0.041  -0.007  -0.069   0.007  -0.000  -0.024   0.004   0.069  -0.004   0.000   0.059   0.002   0.000   0.261  -0.000   0.000
  0.004   0.042  -0.006   0.024  -0.003  -0.001  -0.024   0.004   0.006   0.002   0.001   0.000   0.002  -0.000   0.254  -0.002
  0.001  -0.014   0.000  -0.008  -0.000  -0.000   0.002   0.000   0.006   0.000   0.000  -0.000  -0.026   0.000  -0.002   0.003
 -0.008  -0.000  -0.007   0.000   0.000   0.006   0.000  -0.008  -0.000   0.000  -0.007  -0.000   0.000  -0.027  -0.000  -0.000
 -0.001  -0.008  -0.000  -0.014  -0.000   0.000   0.006  -0.000   0.002   0.000  -0.000   0.000  -0.002  -0.000  -0.026   0.000
 total augmentation occupancy for first ion, spin component:           2
  0.673   0.097  -0.012  -0.097   0.000  -0.429  -0.082   0.008   0.082   0.000  -0.003   0.001   0.036  -0.000  -0.036  -0.001
  0.097   0.546  -0.101   0.009   0.116  -0.081  -0.336   0.063  -0.005  -0.058   0.036  -0.002  -0.087  -0.038   0.003   0.002
 -0.012  -0.101   0.901   0.101  -0.000   0.007   0.062  -0.437  -0.062  -0.000   0.032   0.003  -0.015   0.042   0.015   0.000
 -0.097   0.009   0.101   0.546   0.116   0.081  -0.005  -0.063  -0.336  -0.058  -0.036   0.002   0.003   0.038  -0.087  -0.000
  0.000   0.116   0.000   0.116   0.978  -0.000  -0.057  -0.000  -0.057  -0.476  -0.000  -0.000  -0.021   0.000  -0.021  -0.000
 -0.429  -0.081   0.007   0.081   0.000   0.231   0.065  -0.003  -0.065   0.000   0.002  -0.001  -0.021  -0.001   0.021   0.002
 -0.082  -0.336   0.062  -0.005  -0.057   0.065   0.166  -0.035   0.002   0.020  -0.021   0.005   0.056   0.024  -0.004  -0.005
  0.008   0.063  -0.437  -0.063   0.000  -0.003  -0.035   0.135   0.035  -0.000  -0.022   0.001   0.012  -0.042  -0.012  -0.001
  0.082  -0.005  -0.062  -0.336  -0.057  -0.065   0.002   0.035   0.166   0.020   0.021  -0.005  -0.004  -0.024   0.056   0.000
  0.000  -0.058   0.000  -0.058  -0.476   0.000   0.020   0.000   0.020   0.150   0.000  -0.000   0.018   0.000   0.018  -0.000
 -0.003   0.036   0.032  -0.036   0.000   0.002  -0.021  -0.022   0.021   0.000  -0.087   0.016  -0.007  -0.010   0.007  -0.001
  0.001  -0.002   0.003   0.002  -0.000  -0.001   0.005   0.001  -0.005  -0.000   0.016  -0.003  -0.002  -0.004   0.002   0.000
  0.036  -0.087  -0.015   0.003  -0.021  -0.021   0.056   0.012  -0.004   0.018  -0.007  -0.002  -0.000  -0.004  -0.001   0.000
 -0.000  -0.038   0.042   0.038   0.000  -0.001   0.024  -0.042  -0.024   0.000  -0.010  -0.004  -0.004  -0.009   0.004   0.001
 -0.036   0.003   0.015  -0.087  -0.021   0.021  -0.004  -0.012   0.056   0.018   0.007   0.002  -0.001   0.004  -0.000   0.000
 -0.001   0.002   0.000  -0.000  -0.000   0.002  -0.005  -0.001   0.000  -0.000  -0.001   0.000   0.000   0.001   0.000   0.000
 -0.000   0.001  -0.004  -0.001  -0.000   0.000  -0.003   0.003   0.003   0.000  -0.002   0.001   0.001   0.001  -0.001  -0.000
  0.001  -0.000  -0.000   0.002  -0.000  -0.002   0.000   0.001  -0.005  -0.000   0.001  -0.000   0.000  -0.001   0.000  -0.000


------------------------ aborting loop because EDIFF is reached ----------------------------------------





 total charge     

# of ion       s       p       d       tot
------------------------------------------
    1        0.474   0.427   8.375   9.275
    2        0.471   0.425   8.375   9.272
    3        0.473   0.424   8.372   9.269
    4        0.473   0.424   8.357   9.253
    5        0.473   0.424   8.357   9.253
    6        0.473   0.424   8.372   9.269
    7        0.471   0.425   8.375   9.272
    8        0.474   0.427   8.375   9.275
    9        0.309   0.293   4.938   5.540
   10        0.310   0.293   4.931   5.533
   11        0.335   0.334   5.016   5.685
   12        0.346   0.340   4.935   5.620
   13        0.336   0.339   4.943   5.618
   14        0.348   0.325   4.964   5.637
   15        1.243   1.736   0.301   3.280
   16        1.245   1.726   0.302   3.273
--------------------------------------------------
tot          8.253   8.785  97.289 114.326



 magnetization (x)

# of ion       s       p       d       tot
------------------------------------------
    1       -0.014  -0.006   0.453   0.432
    2       -0.016  -0.001   0.447   0.429
    3       -0.015  -0.007   0.427   0.405
    4       -0.015  -0.007   0.440   0.418
    5       -0.015  -0.007   0.440   0.418
    6       -0.015  -0.007   0.427   0.405
    7       -0.016  -0.001   0.447   0.429
    8       -0.014  -0.006   0.453   0.432
    9       -0.037  -0.035  -3.563  -3.635
   10        0.025   0.027   3.628   3.680
   11        0.021   0.007   3.399   3.427
   12        0.024   0.030   3.464   3.517
   13        0.021   0.016   3.378   3.416
   14        0.028  -0.004   3.526   3.551
   15       -0.003   0.005  -0.006  -0.005
   16       -0.009  -0.057  -0.002  -0.068
--------------------------------------------------
tot         -0.050  -0.054  17.357  17.252

    CHARGE:  cpu time    0.7158: real time    0.7168
    FORLOC:  cpu time    0.0072: real time    0.0072
    FORNL :  cpu time    5.0645: real time    5.0735
    STRESS:  cpu time   15.2881: real time   15.3140
    FORCOR:  cpu time    0.1010: real time    0.1010
    FORHAR:  cpu time    0.0162: real time    0.0162
    MIXING:  cpu time    0.0017: real time    0.0017
    OFIELD:  cpu time    0.0000: real time    0.0000

  FORCE on cell =-STRESS in cart. coord.  units (eV):
  Direction    XX          YY          ZZ          XY          YZ          ZX
  --------------------------------------------------------------------------------------
  Alpha Z   530.19451   530.19451   530.19451
  Ewald   -2969.77869 -2969.77869 -3336.41525    -0.00000    -0.00000     0.00000
  Hartree  1094.81471  1094.81471   752.66625    -0.00000    -0.00000    -0.00000
  E(xc)    -671.03197  -671.03197  -670.78346    -0.00000     0.00000    -0.00000
  Local    -480.96434  -480.96434   232.62285     0.00000    -0.00000     0.00000
  n-local  -150.39340  -145.75603  -148.33756    -0.26357    -0.90962     0.26995
  augment  1580.36951  1580.36951  1577.95224    -0.00000     0.00000     0.00000
  Kinetic  1053.40291  1074.14360  1060.84771     0.35798    -0.02413     1.07151
  Fock        0.00000     0.00000     0.00000     0.00000     0.00000     0.00000
  -------------------------------------------------------------------------------------
  Total      -0.69773    -0.69773    -1.25271     0.00000     0.00000     0.00000
  in kB      -5.26729    -5.26729    -9.45693     0.00000     0.00000     0.00000
  external pressure =       -6.66 kB  Pullay stress =        0.00 kB


 VOLUME and BASIS-vectors are now :
 -----------------------------------------------------------------------------
  energy-cutoff  :      550.00
  volume of cell :      212.23
      direct lattice vectors                 reciprocal lattice vectors
     5.964912034  0.000000000  0.000000000     0.167647066  0.000000000  0.000000000
     0.000000000  5.964912034  0.000000000     0.000000000  0.167647066  0.000000000
     0.000000000  0.000000000  5.964912034     0.000000000  0.000000000  0.167647066

  length of vectors
     5.964912034  5.964912034  5.964912034     0.167647066  0.167647066  0.167647066


 FORCES acting on ions
    electron-ion (+dipol)            ewald-force                    non-local-force                 convergence-correction
 -----------------------------------------------------------------------------------------------
   0.781E+00 -.781E+00 0.178E+03   -.790E+00 0.790E+00 -.175E+03   0.252E-02 -.252E-02 -.277E+01   0.945E-02 -.945E-02 0.252E-02
   -.781E+00 -.781E+00 0.178E+03   0.790E+00 0.790E+00 -.175E+03   -.252E-02 -.252E-02 -.277E+01   -.945E-02 -.945E-02 0.252E-02
   0.781E+00 0.781E+00 0.178E+03   -.790E+00 -.790E+00 -.175E+03   0.252E-02 0.252E-02 -.277E+01   0.945E-02 0.945E-02 0.252E-02
   -.781E+00 0.781E+00 0.178E+03   0.790E+00 -.790E+00 -.175E+03   -.252E-02 0.252E-02 -.277E+01   -.945E-02 0.945E-02 0.252E-02
   0.781E+00 -.781E+00 -.178E+03   -.790E+00 0.790E+00 0.175E+03   0.252E-02 -.252E-02 0.277E+01   0.945E-02 -.945E-02 -.252E-02
   -.781E+00 -.781E+00 -.178E+03   0.790E+00 0.790E+00 0.175E+03   -.252E-02 -.252E-02 0.277E+01   -.945E-02 -.945E-02 -.252E-02
   0.781E+00 0.781E+00 -.178E+03   -.790E+00 -.790E+00 0.175E+03   0.252E-02 0.252E-02 0.277E+01   0.945E-02 0.945E-02 -.252E-02
   -.781E+00 0.781E+00 -.178E+03   0.790E+00 -.790E+00 0.175E+03   -.252E-02 0.252E-02 0.277E+01   -.945E-02 0.945E-02 -.252E-02
   0.221E-12 0.146E-13 -.636E-12   -.101E-13 0.131E-13 0.278E-13   0.000E+00 0.000E+00 0.000E+00   0.547E-12 -.938E-12 -.869E-12
   -.146E-13 0.201E-12 -.700E-13   -.875E-13 0.238E-13 0.137E-13   0.000E+00 0.000E+00 0.000E+00   0.193E-12 0.115E-11 -.732E-13
   -.317E-13 -.405E-13 0.201E-12   0.271E-13 0.238E-13 0.300E-13   0.000E+00 0.000E+00 0.000E+00   -.361E-12 0.122E-11 0.809E-12
   0.213E-12 -.364E-13 0.160E-11   0.201E-12 0.816E-13 -.110E-14   0.000E+00 0.000E+00 0.000E+00   0.350E-12 0.123E-11 0.798E-12
   0.206E-12 0.167E-12 0.947E-12   0.978E-13 0.459E-13 0.442E-13   0.000E+00 0.000E+00 0.000E+00   -.724E-12 -.106E-11 0.169E-12
   -.234E-13 0.186E-12 0.198E-12   -.132E-12 -.953E-13 -.438E-13   0.000E+00 0.000E+00 0.000E+00   0.702E-12 -.107E-11 0.177E-12
   -.859E-14 -.129E-13 -.244E-13   0.760E-14 -.153E-13 -.138E-13   0.000E+00 0.000E+00 0.000E+00   -.157E-12 -.238E-12 -.269E-12
   -.246E-13 -.497E-12 0.876E-14   0.123E-13 0.179E-13 0.398E-15   0.000E+00 0.000E+00 0.000E+00   0.180E-14 0.261E-12 -.816E-13
 -----------------------------------------------------------------------------------------------
   0.119E-10 -.634E-11 -.568E-11   -.286E-13 -.219E-13 0.574E-13   -.104E-16 0.694E-17 -.888E-15   0.880E-12 -.207E-12 0.144E-10


 POSITION                                       TOTAL-FORCE (eV/Angst)
 -----------------------------------------------------------------------------------
      1.49206      1.49040      1.60259         0.002811     -0.002811     -0.002892
      4.47285      1.49040      1.60259        -0.002811     -0.002811     -0.002892
      1.49206      4.47452      1.60259         0.002811      0.002811     -0.002892
      4.47285      4.47452      1.60259        -0.002811      0.002811     -0.002892
      1.49206      1.49040      4.36233         0.002811     -0.002811      0.002892
      4.47285      1.49040      4.36233        -0.002811     -0.002811      0.002892
      1.49206      4.47452      4.36233         0.002811      0.002811      0.002892
      4.47285      4.47452      4.36233        -0.002811      0.002811      0.002892
      2.98246      0.00000      0.00000         0.000000      0.000000      0.000000
      0.00000      2.98246      0.00000         0.000000      0.000000      0.000000
      0.00000      0.00000      2.98246         0.000000      0.000000      0.000000
      2.98246      0.00000      2.98246         0.000000      0.000000      0.000000
      2.98246      2.98246      2.98246         0.000000      0.000000      0.000000
      0.00000      2.98246      2.98246         0.000000      0.000000      0.000000
      0.00000      0.00000      0.00000         0.000000      0.000000      0.000000
      2.98246      2.98246      0.00000         0.000000      0.000000      0.000000
 -----------------------------------------------------------------------------------
    total drift:                                0.000000     -0.000000      0.000000


--------------------------------------------------------------------------------------------------------



  FREE ENERGIE OF THE ION-ELECTRON SYSTEM (eV)
  ---------------------------------------------------
  free  energy   TOTEN  =      -103.36031023 eV

  energy  without entropy=     -103.35790952  energy(sigma->0) =     -103.35910988

 d Force = 0.3271373E-04[ 0.163E-04, 0.492E-04]  d Energy = 0.3403535E-04-0.132E-05
 d Force =-0.6478018E-01[-0.659E-01,-0.637E-01]  d Ewald  =-0.6478018E-01-0.215E-08


--------------------------------------------------------------------------------------------------------


    POTLOK:  cpu time    0.1355: real time    0.1358


--------------------------------------------------------------------------------------------------------


 Steepest descent step on ions:
 trial-energy change:   -0.000034  1 .order   -0.000033   -0.000049   -0.000016
  (g-gl).g = 0.492E-04      g.g   = 0.492E-04  gl.gl    = 0.000E+00
 g(Force)  = 0.492E-04   g(Stress)= 0.000E+00 ortho     = 0.000E+00
 gamma     =   0.00000
 trial     =   1.00000
 opt step  =   1.49387  (harmonic =   1.49387) maximal distance =0.00057336
 next E    =  -103.360313   (d E  =  -0.00004)


--------------------------------------------------------------------------------------------------------


  
 reached required accuracy - stopping structural energy minimisation
     LOOP+:  cpu time   88.7062: real time   88.8637
    4ORBIT:  cpu time    0.0000: real time    0.0000



 total charge     

# of ion       s       p       d       tot
------------------------------------------
    1        0.474   0.427   8.375   9.275
    2        0.471   0.425   8.375   9.272
    3        0.473   0.424   8.372   9.269
    4        0.473   0.424   8.357   9.253
    5        0.473   0.424   8.357   9.253
    6        0.473   0.424   8.372   9.269
    7        0.471   0.425   8.375   9.272
    8        0.474   0.427   8.375   9.275
    9        0.309   0.293   4.938   5.540
   10        0.310   0.293   4.931   5.533
   11        0.335   0.334   5.016   5.685
   12        0.346   0.340   4.935   5.620
   13        0.336   0.339   4.943   5.618
   14        0.348   0.325   4.964   5.637
   15        1.243   1.736   0.301   3.280
   16        1.245   1.726   0.302   3.273
--------------------------------------------------
tot          8.253   8.785  97.289 114.326



 magnetization (x)

# of ion       s       p       d       tot
------------------------------------------
    1       -0.014  -0.006   0.453   0.432
    2       -0.016  -0.001   0.447   0.429
    3       -0.015  -0.007   0.427   0.405
    4       -0.015  -0.007   0.440   0.418
    5       -0.015  -0.007   0.440   0.418
    6       -0.015  -0.007   0.427   0.405
    7       -0.016  -0.001   0.447   0.429
    8       -0.014  -0.006   0.453   0.432
    9       -0.037  -0.035  -3.563  -3.635
   10        0.025   0.027   3.628   3.680
   11        0.021   0.007   3.399   3.427
   12        0.024   0.030   3.464   3.517
   13        0.021   0.016   3.378   3.416
   14        0.028  -0.004   3.526   3.551
   15       -0.003   0.005  -0.006  -0.005
   16       -0.009  -0.057  -0.002  -0.068
--------------------------------------------------
tot         -0.050  -0.054  17.357  17.252


 total amount of memory used by VASP MPI-rank0   103604. kBytes
=======================================================================

   base      :      30000. kBytes
   nonlr-proj:       6775. kBytes
   fftplans  :       1269. kBytes
   grid      :       6573. kBytes
   one-center:        497. kBytes
   wavefun   :      58490. kBytes

  
  
 General timing and accounting informations for this job:
 ========================================================
  
                  Total CPU time used (sec):      498.324
                            User time (sec):      473.120
                          System time (sec):       25.204
                         Elapsed time (sec):      500.353
  
                   Maximum memory used (kb):      138332.
                   Average memory used (kb):           0.
  
                          Minor page faults:      9232681
                          Major page faults:           17
                 Voluntary context switches:         2451
