 vasp.5.4.4.18Apr17-6-g9f103f2a35 (build May 21 2018 20:56:50) complex           
 executed on             LinuxGNU date 2021.10.15  15:42:50
 running on   12 total cores
 distrk:  each k-point on   12 cores,    1 groups
 distr:  one band on NCORES_PER_BAND=   1 cores,   12 groups


--------------------------------------------------------------------------------------------------------


 INCAR:
 POTCAR:    PAW_PBE Ni 02Aug2007                  
 POTCAR:    PAW_PBE Mn 06Sep2000                  
 POTCAR:    PAW_PBE In 08Apr2002                  

 ----------------------------------------------------------------------------- 
|                                                                             |
|           W    W    AA    RRRRR   N    N  II  N    N   GGGG   !!!           |
|           W    W   A  A   R    R  NN   N  II  NN   N  G    G  !!!           |
|           W    W  A    A  R    R  N N  N  II  N N  N  G       !!!           |
|           W WW W  AAAAAA  RRRRR   N  N N  II  N  N N  G  GGG   !            |
|           WW  WW  A    A  R   R   N   NN  II  N   NN  G    G                |
|           W    W  A    A  R    R  N    N  II  N    N   GGGG   !!!           |
|                                                                             |
|      For optimal performance we recommend to set                            |
|        NCORE= 4 - approx SQRT( number of cores)                             |
|      NCORE specifies how many cores store one orbital (NPAR=cpu/NCORE).     |
|      This setting can  greatly improve the performance of VASP for DFT.     |
|      The default,   NCORE=1            might be grossly inefficient         |
|      on modern multi-core architectures or massively parallel machines.     |
|      Do your own testing !!!!                                               |
|      Unfortunately you need to use the default for GW and RPA calculations. |
|      (for HF NCORE is supported but not extensively tested yet)             |
|                                                                             |
 ----------------------------------------------------------------------------- 

 POTCAR:    PAW_PBE Ni 02Aug2007                  
   VRHFIN =Ni:                                                                  
   LEXCH  = PE                                                                  
   EATOM  =  1077.6739 eV,   79.2068 Ry                                         
                                                                                
   TITEL  = PAW_PBE Ni 02Aug2007                                                
   LULTRA =        F    use ultrasoft PP ?                                      
   IUNSCR =        1    unscreen: 0-lin 1-nonlin 2-no                           
   RPACOR =    2.000    partial core radius                                     
   POMASS =   58.690; ZVAL   =   10.000    mass and valenz                      
   RCORE  =    2.300    outmost cutoff radius                                   
   RWIGS  =    2.430; RWIGS  =    1.286    wigner-seitz radius (au A)           
   ENMAX  =  269.532; ENMIN  =  202.149 eV                                      
   RCLOC  =    1.201    cutoff for local pot                                    
   LCOR   =        T    correct aug charges                                     
   LPAW   =        T    paw PP                                                  
   EAUG   =  544.565                                                            
   DEXC   =    0.000                                                            
   RMAX   =    2.357    core radius for proj-oper                               
   RAUG   =    1.300    factor for augmentation sphere                          
   RDEP   =    2.390    radius for radial grids                                 
   RDEPT  =    1.838    core radius for aug-charge                              
                                                                                
   Atomic configuration                                                         
    9 entries                                                                   
     n  l   j            E        occ.                                          
     1  0  0.50     -8206.4253   2.0000                                         
     2  0  0.50      -976.1748   2.0000                                         
     2  1  1.50      -839.0571   6.0000                                         
     3  0  0.50      -105.9991   2.0000                                         
     3  1  1.50       -66.4603   6.0000                                         
     3  2  2.50        -4.6458   9.0000                                         
     4  0  0.50        -4.4926   1.0000                                         
     4  1  1.50        -4.0817   0.0000                                         
     4  3  2.50        -1.3606   0.0000                                         
   Description                                                                  
     l       E           TYP  RCUT    TYP  RCUT                                 
     2     -4.6457903     23  2.300                                             
     2     -6.0063729     23  2.300                                             
     0     -4.4925590     23  2.300                                             
     0      5.0102601     23  2.300                                             
     1     -2.7211652     23  2.300                                             
     1     16.5183231     23  2.300                                             
  local pseudopotential read in
  partial core-charges read in
  partial kinetic energy density read in
  atomic valenz-charges read in
  non local Contribution for L=           2  read in
    real space projection operators read in
  non local Contribution for L=           2  read in
    real space projection operators read in
  non local Contribution for L=           0  read in
    real space projection operators read in
  non local Contribution for L=           0  read in
    real space projection operators read in
  non local Contribution for L=           1  read in
    real space projection operators read in
  non local Contribution for L=           1  read in
    real space projection operators read in
    PAW grid and wavefunctions read in

   number of l-projection  operators is LMAX  =           6
   number of lm-projection operators is LMMAX =          18

 POTCAR:    PAW_PBE Mn 06Sep2000                  
   VRHFIN =Mn: d6 s1                                                            
   LEXCH  = PE                                                                  
   EATOM  =   416.7541 eV,   30.6306 Ry                                         
                                                                                
   TITEL  = PAW_PBE Mn 06Sep2000                                                
   LULTRA =        F    use ultrasoft PP ?                                      
   IUNSCR =        1    unscreen: 0-lin 1-nonlin 2-no                           
   RPACOR =    2.000    partial core radius                                     
   POMASS =   54.938; ZVAL   =    7.000    mass and valenz                      
   RCORE  =    2.300    outmost cutoff radius                                   
   RWIGS  =    2.500; RWIGS  =    1.323    wigner-seitz radius (au A)           
   ENMAX  =  269.864; ENMIN  =  202.398 eV                                      
   RCLOC  =    1.725    cutoff for local pot                                    
   LCOR   =        T    correct aug charges                                     
   LPAW   =        T    paw PP                                                  
   EAUG   =  500.711                                                            
   DEXC   =    0.000                                                            
   RMAX   =    2.343    core radius for proj-oper                               
   RAUG   =    1.300    factor for augmentation sphere                          
   RDEP   =    2.338    radius for radial grids                                 
   RDEPT  =    1.911    core radius for aug-charge                              
                                                                                
   Atomic configuration                                                         
    9 entries                                                                   
     n  l   j            E        occ.                                          
     1  0  0.50     -6424.8288   2.0000                                         
     2  0  0.50      -739.1154   2.0000                                         
     2  1  1.50      -625.3949   6.0000                                         
     3  0  0.50       -81.6100   2.0000                                         
     3  1  1.50       -50.4667   6.0000                                         
     3  2  2.50        -3.3745   6.0000                                         
     4  0  0.50        -4.1331   1.0000                                         
     4  1  0.50        -4.0817   0.0000                                         
     4  3  2.50        -1.3606   0.0000                                         
   Description                                                                  
     l       E           TYP  RCUT    TYP  RCUT                                 
     2     -3.3744664     23  2.300                                             
     2     -4.7350490     23  2.300                                             
     0     -4.1331408     23  2.300                                             
     0      7.6656614     23  2.300                                             
     1     -2.7211652     23  2.300                                             
     1     20.4087390     23  2.300                                             
  local pseudopotential read in
  partial core-charges read in
  partial kinetic energy density read in
  atomic valenz-charges read in
  non local Contribution for L=           2  read in
    real space projection operators read in
  non local Contribution for L=           2  read in
    real space projection operators read in
  non local Contribution for L=           0  read in
    real space projection operators read in
  non local Contribution for L=           0  read in
    real space projection operators read in
  non local Contribution for L=           1  read in
    real space projection operators read in
  non local Contribution for L=           1  read in
    real space projection operators read in
    PAW grid and wavefunctions read in

   number of l-projection  operators is LMAX  =           6
   number of lm-projection operators is LMMAX =          18

 POTCAR:    PAW_PBE In 08Apr2002                  
   VRHFIN =In: s2p1                                                             
   LEXCH  = PE                                                                  
   EATOM  =    53.7908 eV,    3.9535 Ry                                         
                                                                                
   TITEL  = PAW_PBE In 08Apr2002                                                
   LULTRA =        F    use ultrasoft PP ?                                      
   IUNSCR =        1    unscreen: 0-lin 1-nonlin 2-no                           
   RPACOR =    2.400    partial core radius                                     
   POMASS =  114.820; ZVAL   =    3.000    mass and valenz                      
   RCORE  =    3.100    outmost cutoff radius                                   
   RWIGS  =    3.170; RWIGS  =    1.677    wigner-seitz radius (au A)           
   ENMAX  =   95.934; ENMIN  =   71.951 eV                                      
   ICORE  =        3    local potential                                         
   LCOR   =        T    correct aug charges                                     
   LPAW   =        T    paw PP                                                  
   EAUG   =  237.125                                                            
   DEXC   =    0.000                                                            
   RMAX   =    3.168    core radius for proj-oper                               
   RAUG   =    1.300    factor for augmentation sphere                          
   RDEP   =    3.187    radius for radial grids                                 
   RDEPT  =    2.711    core radius for aug-charge                              
                                                                                
   Atomic configuration                                                         
   13 entries                                                                   
     n  l   j            E        occ.                                          
     1  0  0.50    -27747.9169   2.0000                                         
     2  0  0.50     -4154.4438   2.0000                                         
     2  1  1.50     -3728.4305   6.0000                                         
     3  0  0.50      -788.3680   2.0000                                         
     3  1  1.50      -648.9215   6.0000                                         
     3  2  2.50      -432.5893  10.0000                                         
     4  0  0.50      -119.6363   2.0000                                         
     4  1  1.50       -78.1086   6.0000                                         
     4  2  2.50       -18.6227  10.0000                                         
     5  0  0.50        -8.2107   2.0000                                         
     5  1  0.50        -2.5185   1.0000                                         
     5  2  2.50        -1.3606   0.0000                                         
     4  3  2.50        -2.7212   0.0000                                         
   Description                                                                  
     l       E           TYP  RCUT    TYP  RCUT                                 
     0     -8.2107306     23  3.100                                             
     0     -6.1485975     23  3.100                                             
     1     -2.5184867     23  3.100                                             
     1      3.2427302     23  3.100                                             
     2     -1.3605826     23  3.100                                             
     3     -1.3605826     23  3.100                                             
  local pseudopotential read in
  partial core-charges read in
  partial kinetic energy density read in
  atomic valenz-charges read in
  non local Contribution for L=           0  read in
    real space projection operators read in
  non local Contribution for L=           0  read in
    real space projection operators read in
  non local Contribution for L=           1  read in
    real space projection operators read in
  non local Contribution for L=           1  read in
    real space projection operators read in
  non local Contribution for L=           2  read in
    real space projection operators read in
    PAW grid and wavefunctions read in

   number of l-projection  operators is LMAX  =           5
   number of lm-projection operators is LMMAX =          13

 Optimization of the real space projectors (new method)

 maximal supplied QI-value         = 16.25
 optimisation between [QCUT,QGAM] = [ 11.86, 23.89] = [ 39.41,159.82] Ry 
 Optimized for a Real-space Cutoff    1.33 Angstroem

   l    n(q)    QCUT    max X(q) W(low)/X(q) W(high)/X(q)  e(spline) 
   2      9    11.864    60.317    0.21E-03    0.51E-03    0.25E-06
   2      9    11.864    55.921    0.21E-03    0.51E-03    0.26E-06
   0      9    11.864    51.690    0.22E-03    0.30E-04    0.17E-06
   0      9    11.864    30.015    0.20E-03    0.28E-04    0.15E-06
   1      9    11.864    18.849    0.76E-04    0.33E-03    0.17E-06
   1      9    11.864    14.624    0.60E-04    0.28E-03    0.15E-06
 Optimization of the real space projectors (new method)

 maximal supplied QI-value         = 16.25
 optimisation between [QCUT,QGAM] = [ 11.86, 23.89] = [ 39.41,159.82] Ry 
 Optimized for a Real-space Cutoff    1.36 Angstroem

   l    n(q)    QCUT    max X(q) W(low)/X(q) W(high)/X(q)  e(spline) 
   2      9    11.864   110.144    0.49E-03    0.50E-03    0.21E-06
   2      9    11.864   103.200    0.49E-03    0.51E-03    0.22E-06
   0     10    11.864    68.437    0.12E-03    0.41E-04    0.21E-06
   0     10    11.864    33.971    0.11E-03    0.36E-04    0.19E-06
   1      9    11.864    17.065    0.24E-03    0.26E-03    0.93E-07
   1      9    11.864    12.540    0.19E-03    0.20E-03    0.80E-07
 Optimization of the real space projectors (new method)

 maximal supplied QI-value         = 12.09
 optimisation between [QCUT,QGAM] = [ 11.97, 23.95] = [ 40.14,160.58] Ry 
 Optimized for a Real-space Cutoff    1.63 Angstroem

   l    n(q)    QCUT    max X(q) W(low)/X(q) W(high)/X(q)  e(spline) 
   0     12    11.973   106.980    0.33E-03    0.16E-03    0.25E-05
   0     12    11.973    81.086    0.37E-03    0.18E-03    0.28E-05
   1     11    11.973    53.097    0.22E-03    0.42E-03    0.40E-05
   1     11    11.973    32.621    0.20E-03    0.40E-03    0.37E-05
   2     11    11.973     8.820    0.30E-03    0.17E-03    0.41E-06
  PAW_PBE Ni 02Aug2007                  :
 energy of atom  1       EATOM=-1077.6739
 kinetic energy error for atom=    0.0027 (will be added to EATOM!!)
  PAW_PBE Mn 06Sep2000                  :
 energy of atom  2       EATOM= -416.7541
 kinetic energy error for atom=    0.0022 (will be added to EATOM!!)
  PAW_PBE In 08Apr2002                  :
 energy of atom  3       EATOM=  -53.7908
 kinetic energy error for atom=    0.0000 (will be added to EATOM!!)


 POSCAR: Ni2MnIn                                 
  positions in direct lattice
  velocities in cartesian coordinates
 exchange correlation table for  LEXCH =        8
   RHO(1)=    0.500       N(1)  =     2000
   RHO(2)=  100.500       N(2)  =     4000



--------------------------------------------------------------------------------------------------------


 ion  position               nearest neighbor table
   1  0.250  0.250  0.269-  11 2.52  12 2.52  14 2.52  13 2.52  15 2.65  10 2.65   9 2.65  16 2.65
                             5 2.76   3 2.98   2 2.98   3 2.98   2 2.98
   2  0.750  0.250  0.269-  11 2.52  12 2.52  14 2.52  13 2.52  15 2.65  10 2.65   9 2.65  16 2.65
                             6 2.76   4 2.98   1 2.98   4 2.98   1 2.98
   3  0.250  0.750  0.269-  11 2.52  12 2.52  14 2.52  13 2.52  15 2.65  10 2.65   9 2.65  16 2.65
                             7 2.76   4 2.98   1 2.98   4 2.98   1 2.98
   4  0.750  0.750  0.269-  11 2.52  12 2.52  14 2.52  13 2.52  15 2.65  10 2.65   9 2.65  16 2.65
                             8 2.76   3 2.98   2 2.98   2 2.98   3 2.98
   5  0.250  0.250  0.731-  11 2.52  12 2.52  14 2.52  13 2.52  15 2.65  10 2.65   9 2.65  16 2.65
                             1 2.76   6 2.98   7 2.98   7 2.98   6 2.98
   6  0.750  0.250  0.731-  11 2.52  12 2.52  14 2.52  13 2.52  15 2.65  10 2.65   9 2.65  16 2.65
                             2 2.76   5 2.98   8 2.98   8 2.98   5 2.98
   7  0.250  0.750  0.731-  11 2.52  12 2.52  14 2.52  13 2.52  15 2.65  10 2.65   9 2.65  16 2.65
                             3 2.76   5 2.98   8 2.98   8 2.98   5 2.98
   8  0.750  0.750  0.731-  11 2.52  12 2.52  14 2.52  13 2.52  15 2.65  10 2.65   9 2.65  16 2.65
                             4 2.76   6 2.98   7 2.98   6 2.98   7 2.98
   9  0.500  0.000  0.000-   1 2.65   2 2.65   3 2.65   4 2.65   5 2.65   6 2.65   7 2.65   8 2.65
                            12 2.98  15 2.98  16 2.98  12 2.98  16 2.98  15 2.98
  10  0.000  0.500  0.000-   1 2.65   2 2.65   3 2.65   4 2.65   5 2.65   6 2.65   7 2.65   8 2.65
                            14 2.98  15 2.98  16 2.98  14 2.98  15 2.98  16 2.98
  11  0.000  0.000  0.500-   1 2.52   2 2.52   3 2.52   4 2.52   5 2.52   6 2.52   7 2.52   8 2.52
                            12 2.98  14 2.98  15 2.98  15 2.98  14 2.98  12 2.98
  12  0.500  0.000  0.500-   1 2.52   2 2.52   3 2.52   4 2.52   5 2.52   6 2.52   7 2.52   8 2.52
                             9 2.98  11 2.98  13 2.98   9 2.98  13 2.98  11 2.98
  13  0.500  0.500  0.500-   1 2.52   2 2.52   3 2.52   4 2.52   5 2.52   6 2.52   7 2.52   8 2.52
                            12 2.98  14 2.98  16 2.98  16 2.98  12 2.98  14 2.98
  14  0.000  0.500  0.500-   1 2.52   2 2.52   3 2.52   4 2.52   5 2.52   6 2.52   7 2.52   8 2.52
                            10 2.98  11 2.98  13 2.98  10 2.98  11 2.98  13 2.98
  15  0.000  0.000  0.000-   1 2.65   2 2.65   3 2.65   4 2.65   5 2.65   6 2.65   7 2.65   8 2.65
                             9 2.98  10 2.98  11 2.98  11 2.98  10 2.98   9 2.98
  16  0.500  0.500  0.000-   1 2.65   2 2.65   3 2.65   4 2.65   5 2.65   6 2.65   7 2.65   8 2.65
                             9 2.98  10 2.98  13 2.98  13 2.98   9 2.98  10 2.98

  LATTYP: Found a simple cubic cell.
 ALAT       =     5.9627323088
  
  Lattice vectors:
  
 A1 = (   5.9627323088,   0.0000000000,   0.0000000000)
 A2 = (   0.0000000000,   5.9627323088,   0.0000000000)
 A3 = (   0.0000000000,   0.0000000000,   5.9627323088)


Analysis of symmetry for initial positions (statically):
=====================================================================
 Subroutine PRICEL returns:
 Original cell was already a primitive cell.
 

 Routine SETGRP: Setting up the symmetry group for a 
 simple cubic supercell.


 Subroutine GETGRP returns: Found 16 space group operations
 (whereof 16 operations were pure point group operations)
 out of a pool of 48 trial point group operations.


The static configuration has the point symmetry D_4h.


Analysis of symmetry for dynamics (positions and initial velocities):
=====================================================================
 Subroutine PRICEL returns:
 Original cell was already a primitive cell.
 

 Routine SETGRP: Setting up the symmetry group for a 
 simple cubic supercell.


 Subroutine GETGRP returns: Found 16 space group operations
 (whereof 16 operations were pure point group operations)
 out of a pool of 48 trial point group operations.


The dynamic configuration has the point symmetry D_4h.


Analysis of structural, dynamic, and magnetic symmetry:
=====================================================================
 Subroutine PRICEL returns:
 Original cell was already a primitive cell.
 

 Routine SETGRP: Setting up the symmetry group for a 
 simple cubic supercell.


 Subroutine GETGRP returns: Found 16 space group operations
 (whereof 16 operations were pure point group operations)
 out of a pool of 48 trial point group operations.


The magnetic configuration has the point symmetry D_4h.


 Subroutine INISYM returns: Found 16 space group operations
 (whereof 16 operations are pure point group operations),
 and found     1 'primitive' translations



 KPOINTS: k-points                                

Automatic generation of k-mesh.
Space group operators:
 irot       det(A)        alpha          n_x          n_y          n_z        tau_x        tau_y        tau_z
    1     1.000000     0.000000     1.000000     0.000000     0.000000     0.000000     0.000000     0.000000
    2    -1.000000     0.000000     1.000000     0.000000     0.000000     0.000000     0.000000     0.000000
    3     1.000000    90.000000     0.000000     0.000000    -1.000000     0.000000     0.000000     0.000000
    4    -1.000000    90.000000     0.000000     0.000000    -1.000000     0.000000     0.000000     0.000000
    5     1.000000   180.000000     0.000000     0.000000     1.000000     0.000000     0.000000     0.000000
    6    -1.000000   180.000000     0.000000     0.000000     1.000000     0.000000     0.000000     0.000000
    7     1.000000    90.000000     0.000000     0.000000     1.000000     0.000000     0.000000     0.000000
    8    -1.000000    90.000000     0.000000     0.000000     1.000000     0.000000     0.000000     0.000000
    9     1.000000   180.000000     1.000000     0.000000     0.000000     0.000000     0.000000     0.000000
   10    -1.000000   180.000000     1.000000     0.000000     0.000000     0.000000     0.000000     0.000000
   11     1.000000   180.000000     0.707107     0.707107     0.000000     0.000000     0.000000     0.000000
   12    -1.000000   180.000000     0.707107     0.707107     0.000000     0.000000     0.000000     0.000000
   13     1.000000   180.000000     0.000000     1.000000     0.000000     0.000000     0.000000     0.000000
   14    -1.000000   180.000000     0.000000     1.000000     0.000000     0.000000     0.000000     0.000000
   15     1.000000   180.000000     0.707107    -0.707107     0.000000     0.000000     0.000000     0.000000
   16    -1.000000   180.000000     0.707107    -0.707107     0.000000     0.000000     0.000000     0.000000
 
 Subroutine IBZKPT returns following result:
 ===========================================
 
 Found     40 irreducible k-points:
 
 Following reciprocal coordinates:
            Coordinates               Weight
  0.000000  0.000000  0.000000      1.000000
  0.142857  0.000000  0.000000      4.000000
  0.285714  0.000000  0.000000      4.000000
  0.428571  0.000000  0.000000      4.000000
  0.142857  0.142857  0.000000      4.000000
  0.285714  0.142857  0.000000      8.000000
  0.428571  0.142857  0.000000      8.000000
  0.285714  0.285714  0.000000      4.000000
  0.428571  0.285714  0.000000      8.000000
  0.428571  0.428571  0.000000      4.000000
  0.000000  0.000000  0.142857      2.000000
  0.142857  0.000000  0.142857      8.000000
  0.285714  0.000000  0.142857      8.000000
  0.428571  0.000000  0.142857      8.000000
  0.142857  0.142857  0.142857      8.000000
  0.285714  0.142857  0.142857     16.000000
  0.428571  0.142857  0.142857     16.000000
  0.285714  0.285714  0.142857      8.000000
  0.428571  0.285714  0.142857     16.000000
  0.428571  0.428571  0.142857      8.000000
  0.000000  0.000000  0.285714      2.000000
  0.142857  0.000000  0.285714      8.000000
  0.285714  0.000000  0.285714      8.000000
  0.428571  0.000000  0.285714      8.000000
  0.142857  0.142857  0.285714      8.000000
  0.285714  0.142857  0.285714     16.000000
  0.428571  0.142857  0.285714     16.000000
  0.285714  0.285714  0.285714      8.000000
  0.428571  0.285714  0.285714     16.000000
  0.428571  0.428571  0.285714      8.000000
  0.000000  0.000000  0.428571      2.000000
  0.142857  0.000000  0.428571      8.000000
  0.285714  0.000000  0.428571      8.000000
  0.428571  0.000000  0.428571      8.000000
  0.142857  0.142857  0.428571      8.000000
  0.285714  0.142857  0.428571     16.000000
  0.428571  0.142857  0.428571     16.000000
  0.285714  0.285714  0.428571      8.000000
  0.428571  0.285714  0.428571     16.000000
  0.428571  0.428571  0.428571      8.000000
 
 Following cartesian coordinates:
            Coordinates               Weight
  0.000000  0.000000  0.000000      1.000000
  0.138000  0.000000  0.000000      4.000000
  0.276000  0.000000  0.000000      4.000000
  0.414000  0.000000  0.000000      4.000000
  0.138000  0.138000  0.000000      4.000000
  0.276000  0.138000  0.000000      8.000000
  0.414000  0.138000  0.000000      8.000000
  0.276000  0.276000  0.000000      4.000000
  0.414000  0.276000  0.000000      8.000000
  0.414000  0.414000  0.000000      4.000000
  0.000000  0.000000  0.138000      2.000000
  0.138000  0.000000  0.138000      8.000000
  0.276000  0.000000  0.138000      8.000000
  0.414000  0.000000  0.138000      8.000000
  0.138000  0.138000  0.138000      8.000000
  0.276000  0.138000  0.138000     16.000000
  0.414000  0.138000  0.138000     16.000000
  0.276000  0.276000  0.138000      8.000000
  0.414000  0.276000  0.138000     16.000000
  0.414000  0.414000  0.138000      8.000000
  0.000000  0.000000  0.276000      2.000000
  0.138000  0.000000  0.276000      8.000000
  0.276000  0.000000  0.276000      8.000000
  0.414000  0.000000  0.276000      8.000000
  0.138000  0.138000  0.276000      8.000000
  0.276000  0.138000  0.276000     16.000000
  0.414000  0.138000  0.276000     16.000000
  0.276000  0.276000  0.276000      8.000000
  0.414000  0.276000  0.276000     16.000000
  0.414000  0.414000  0.276000      8.000000
  0.000000  0.000000  0.414000      2.000000
  0.138000  0.000000  0.414000      8.000000
  0.276000  0.000000  0.414000      8.000000
  0.414000  0.000000  0.414000      8.000000
  0.138000  0.138000  0.414000      8.000000
  0.276000  0.138000  0.414000     16.000000
  0.414000  0.138000  0.414000     16.000000
  0.276000  0.276000  0.414000      8.000000
  0.414000  0.276000  0.414000     16.000000
  0.414000  0.414000  0.414000      8.000000
 


--------------------------------------------------------------------------------------------------------




 Dimension of arrays:
   k-points           NKPTS =     40   k-points in BZ     NKDIM =     40   number of bands    NBANDS=     84
   number of dos      NEDOS =    301   number of ions     NIONS =     16
   non local maximal  LDIM  =      6   non local SUM 2l+1 LMDIM =     18
   total plane-waves  NPLWV =  46656
   max r-space proj   IRMAX =   4040   max aug-charges    IRDMAX=  25024
   dimension x,y,z NGX =    36 NGY =   36 NGZ =   36
   dimension x,y,z NGXF=    72 NGYF=   72 NGZF=   72
   support grid    NGXF=    72 NGYF=   72 NGZF=   72
   ions per type =               8   6   2
   NGX,Y,Z   is equivalent  to a cutoff of  10.04, 10.04, 10.04 a.u.
   NGXF,Y,Z  is equivalent  to a cutoff of  20.07, 20.07, 20.07 a.u.

 SYSTEM =  Testrun for NiMnIn                      
 POSCAR =  Ni2MnIn                                 

 Startparameter for this run:
   NWRITE =      2    write-flag & timer
   PREC   = normal    normal or accurate (medium, high low for compatibility)
   ISTART =      0    job   : 0-new  1-cont  2-samecut
   ICHARG =      2    charge: 1-file 2-atom 10-const
   ISPIN  =      2    spin polarized calculation?
   LNONCOLLINEAR =      F non collinear calculations
   LSORBIT =      F    spin-orbit coupling
   INIWAV =      1    electr: 0-lowe 1-rand  2-diag
   LASPH  =      F    aspherical Exc in radial PAW
   METAGGA=      F    non-selfconsistent MetaGGA calc.

 Electronic Relaxation 1
   ENCUT  =  550.0 eV  40.42 Ry    6.36 a.u.  11.40 11.40 11.40*2*pi/ulx,y,z
   ENINI  =  550.0     initial cutoff
   ENAUG  =  544.6 eV  augmentation charge cutoff
   NELM   =     60;   NELMIN=  2; NELMDL= -5     # of ELM steps 
   EDIFF  = 0.1E-04   stopping-criterion for ELM
   LREAL  =      T    real-space projection
   NLSPLINE    = F    spline interpolate recip. space projectors
   LCOMPAT=      F    compatible to vasp.4.4
   GGA_COMPAT  = T    GGA compatible to vasp.4.4-vasp.4.6
   LMAXPAW     = -100 max onsite density
   LMAXMIX     =    2 max onsite mixed and CHGCAR
   VOSKOWN=      0    Vosko Wilk Nusair interpolation
   ROPT   =   -0.00050  -0.00050  -0.00050
 Ionic relaxation
   EDIFFG = -.1E-01   stopping-criterion for IOM
   NSW    =   1000    number of steps for IOM
   NBLOCK =      1;   KBLOCK =   1000    inner block; outer block 
   IBRION =      2    ionic relax: 0-MD 1-quasi-New 2-CG
   NFREE  =      1    steps in history (QN), initial steepest desc. (CG)
   ISIF   =      2    stress and relaxation
   IWAVPR =     11    prediction:  0-non 1-charg 2-wave 3-comb
   ISYM   =      2    0-nonsym 1-usesym 2-fastsym
   LCORR  =      T    Harris-Foulkes like correction to forces

   POTIM  = 0.5000    time-step for ionic-motion
   TEIN   =    0.0    initial temperature
   TEBEG  =    0.0;   TEEND  =   0.0 temperature during run
   SMASS  =  -3.00    Nose mass-parameter (am)
   estimated Nose-frequenzy (Omega)   =  0.10E-29 period in steps =****** mass=  -0.813E-27a.u.
   SCALEE = 1.0000    scale energy and forces
   NPACO  =    256;   APACO  = 16.0  distance and # of slots for P.C.
   PSTRESS=    0.0 pullay stress

  Mass of Ions in am
   POMASS =  58.69 54.94114.82
  Ionic Valenz
   ZVAL   =  10.00  7.00  3.00
  Atomic Wigner-Seitz radii
   RWIGS  =  -1.00 -1.00 -1.00
  virtual crystal weights 
   VCA    =   1.00  1.00  1.00
   NELECT =     128.0000    total number of electrons
   NUPDOWN=      -1.0000    fix difference up-down

 DOS related values:
   EMIN   =  10.00;   EMAX   =-10.00  energy-range for DOS
   EFERMI =   0.00
   ISMEAR =     0;   SIGMA  =   0.02  broadening in eV -4-tet -1-fermi 0-gaus

 Electronic relaxation 2 (details)
   IALGO  =     68    algorithm
   LDIAG  =      T    sub-space diagonalisation (order eigenvalues)
   LSUBROT=      F    optimize rotation matrix (better conditioning)
   TURBO    =      0    0=normal 1=particle mesh
   IRESTART =      0    0=no restart 2=restart with 2 vectors
   NREBOOT  =      0    no. of reboots
   NMIN     =      0    reboot dimension
   EREF     =   0.00    reference energy to select bands
   IMIX   =      4    mixing-type and parameters
     AMIX     =   0.40;   BMIX     =  1.00
     AMIX_MAG =   1.60;   BMIX_MAG =  1.00
     AMIN     =   0.10
     WC   =   100.;   INIMIX=   1;  MIXPRE=   1;  MAXMIX= -45

 Intra band minimization:
   WEIMIN = 0.0010     energy-eigenvalue tresh-hold
   EBREAK =  0.30E-07  absolut break condition
   DEPER  =   0.30     relativ break condition  

   TIME   =   0.40     timestep for ELM

  volume/ion in A,a.u.               =      13.25        89.42
  Fermi-wavevector in a.u.,A,eV,Ry     =   1.383671  2.614759 26.048972  1.914545
  Thomas-Fermi vector in A             =   2.508247

 Write flags
   LWAVE        =      F    write WAVECAR
   LDOWNSAMPLE  =      F    k-point downsampling of WAVECAR
   LCHARG       =      T    write CHGCAR
   LVTOT        =      F    write LOCPOT, total local potential
   LVHAR        =      F    write LOCPOT, Hartree potential only
   LELF         =      F    write electronic localiz. function (ELF)
   LORBIT       =     11    0 simple, 1 ext, 2 COOP (PROOUT), +10 PAW based schemes


 Dipole corrections
   LMONO  =      F    monopole corrections only (constant potential shift)
   LDIPOL =      F    correct potential (dipole corrections)
   IDIPOL =      0    1-x, 2-y, 3-z, 4-all directions 
   EPSILON=  1.0000000 bulk dielectric constant

 Exchange correlation treatment:
   GGA     =    --    GGA type
   LEXCH   =     8    internal setting for exchange type
   VOSKOWN=      0    Vosko Wilk Nusair interpolation
   LHFCALC =     F    Hartree Fock is set to
   LHFONE  =     F    Hartree Fock one center treatment
   AEXX    =    0.0000 exact exchange contribution

 Linear response parameters
   LEPSILON=     F    determine dielectric tensor
   LRPA    =     F    only Hartree local field effects (RPA)
   LNABLA  =     F    use nabla operator in PAW spheres
   LVEL    =     F    velocity operator in full k-point grid
   LINTERFAST=   F  fast interpolation
   KINTER  =     0    interpolate to denser k-point grid
   CSHIFT  =0.1000    complex shift for real part using Kramers Kronig
   OMEGAMAX=  -1.0    maximum frequency
   DEG_THRESHOLD= 0.2000000E-02 threshold for treating states as degnerate
   RTIME   =   -0.100 relaxation time in fs
  (WPLASMAI=    0.000 imaginary part of plasma frequency in eV, 0.658/RTIME)
   DFIELD  = 0.0000000 0.0000000 0.0000000 field for delta impulse in time

 Orbital magnetization related:
   ORBITALMAG=     F  switch on orbital magnetization
   LCHIMAG   =     F  perturbation theory with respect to B field
   DQ        =  0.001000  dq finite difference perturbation B field
   LLRAUG    =     F  two centre corrections for induced B field



--------------------------------------------------------------------------------------------------------


 conjugate gradient relaxation of ions
 charge density and potential will be updated during run
 spin polarized calculation
 RMM-DIIS sequential band-by-band and
  variant of blocked Davidson during initial phase
 perform sub-space diagonalisation
    before iterative eigenvector-optimisation
 modified Broyden-mixing scheme, WC =      100.0
 initial mixing is a Kerker type mixing with AMIX =  0.4000 and BMIX =      1.0000
 Hartree-type preconditioning will be used
 using additional bands           20
 real space projection scheme for non local part
 use partial core corrections
 calculate Harris-corrections to forces   (improved forces if not selfconsistent)
 use gradient corrections 
 use of overlap-Matrix (Vanderbilt PP)
 Gauss-broadening in eV      SIGMA  =   0.02


--------------------------------------------------------------------------------------------------------


  energy-cutoff  :      550.00
  volume of cell :      212.00
      direct lattice vectors                 reciprocal lattice vectors
     5.962732309  0.000000000  0.000000000     0.167708351  0.000000000  0.000000000
     0.000000000  5.962732309  0.000000000     0.000000000  0.167708351  0.000000000
     0.000000000  0.000000000  5.962732309     0.000000000  0.000000000  0.167708351

  length of vectors
     5.962732309  5.962732309  5.962732309     0.167708351  0.167708351  0.167708351



 k-points in units of 2pi/SCALE and weight: k-points                                
   0.00000000  0.00000000  0.00000000       0.003
   0.13800001  0.00000000  0.00000000       0.012
   0.27600003  0.00000000  0.00000000       0.012
   0.41400004  0.00000000  0.00000000       0.012
   0.13800001  0.13800001  0.00000000       0.012
   0.27600003  0.13800001  0.00000000       0.023
   0.41400004  0.13800001  0.00000000       0.023
   0.27600003  0.27600003  0.00000000       0.012
   0.41400004  0.27600003  0.00000000       0.023
   0.41400004  0.41400004  0.00000000       0.012
   0.00000000  0.00000000  0.13800001       0.006
   0.13800001  0.00000000  0.13800001       0.023
   0.27600003  0.00000000  0.13800001       0.023
   0.41400004  0.00000000  0.13800001       0.023
   0.13800001  0.13800001  0.13800001       0.023
   0.27600003  0.13800001  0.13800001       0.047
   0.41400004  0.13800001  0.13800001       0.047
   0.27600003  0.27600003  0.13800001       0.023
   0.41400004  0.27600003  0.13800001       0.047
   0.41400004  0.41400004  0.13800001       0.023
   0.00000000  0.00000000  0.27600003       0.006
   0.13800001  0.00000000  0.27600003       0.023
   0.27600003  0.00000000  0.27600003       0.023
   0.41400004  0.00000000  0.27600003       0.023
   0.13800001  0.13800001  0.27600003       0.023
   0.27600003  0.13800001  0.27600003       0.047
   0.41400004  0.13800001  0.27600003       0.047
   0.27600003  0.27600003  0.27600003       0.023
   0.41400004  0.27600003  0.27600003       0.047
   0.41400004  0.41400004  0.27600003       0.023
   0.00000000  0.00000000  0.41400004       0.006
   0.13800001  0.00000000  0.41400004       0.023
   0.27600003  0.00000000  0.41400004       0.023
   0.41400004  0.00000000  0.41400004       0.023
   0.13800001  0.13800001  0.41400004       0.023
   0.27600003  0.13800001  0.41400004       0.047
   0.41400004  0.13800001  0.41400004       0.047
   0.27600003  0.27600003  0.41400004       0.023
   0.41400004  0.27600003  0.41400004       0.047
   0.41400004  0.41400004  0.41400004       0.023

 k-points in reciprocal lattice and weights: k-points                                
   0.00000000  0.00000000  0.00000000       0.003
   0.14285714  0.00000000  0.00000000       0.012
   0.28571429  0.00000000  0.00000000       0.012
   0.42857143  0.00000000  0.00000000       0.012
   0.14285714  0.14285714  0.00000000       0.012
   0.28571429  0.14285714  0.00000000       0.023
   0.42857143  0.14285714  0.00000000       0.023
   0.28571429  0.28571429  0.00000000       0.012
   0.42857143  0.28571429  0.00000000       0.023
   0.42857143  0.42857143  0.00000000       0.012
   0.00000000  0.00000000  0.14285714       0.006
   0.14285714  0.00000000  0.14285714       0.023
   0.28571429  0.00000000  0.14285714       0.023
   0.42857143  0.00000000  0.14285714       0.023
   0.14285714  0.14285714  0.14285714       0.023
   0.28571429  0.14285714  0.14285714       0.047
   0.42857143  0.14285714  0.14285714       0.047
   0.28571429  0.28571429  0.14285714       0.023
   0.42857143  0.28571429  0.14285714       0.047
   0.42857143  0.42857143  0.14285714       0.023
   0.00000000  0.00000000  0.28571429       0.006
   0.14285714  0.00000000  0.28571429       0.023
   0.28571429  0.00000000  0.28571429       0.023
   0.42857143  0.00000000  0.28571429       0.023
   0.14285714  0.14285714  0.28571429       0.023
   0.28571429  0.14285714  0.28571429       0.047
   0.42857143  0.14285714  0.28571429       0.047
   0.28571429  0.28571429  0.28571429       0.023
   0.42857143  0.28571429  0.28571429       0.047
   0.42857143  0.42857143  0.28571429       0.023
   0.00000000  0.00000000  0.42857143       0.006
   0.14285714  0.00000000  0.42857143       0.023
   0.28571429  0.00000000  0.42857143       0.023
   0.42857143  0.00000000  0.42857143       0.023
   0.14285714  0.14285714  0.42857143       0.023
   0.28571429  0.14285714  0.42857143       0.047
   0.42857143  0.14285714  0.42857143       0.047
   0.28571429  0.28571429  0.42857143       0.023
   0.42857143  0.28571429  0.42857143       0.047
   0.42857143  0.42857143  0.42857143       0.023

 position of ions in fractional coordinates (direct lattice) 
   0.24980680  0.24980680  0.26853210
   0.75019320  0.24980680  0.26853210
   0.24980680  0.75019320  0.26853210
   0.75019320  0.75019320  0.26853210
   0.24980680  0.24980680  0.73146790
   0.75019320  0.24980680  0.73146790
   0.24980680  0.75019320  0.73146790
   0.75019320  0.75019320  0.73146790
   0.50000000  0.00000000  0.00000000
   0.00000000  0.50000000  0.00000000
   0.00000000  0.00000000  0.50000000
   0.50000000  0.00000000  0.50000000
   0.50000000  0.50000000  0.50000000
   0.00000000  0.50000000  0.50000000
   0.00000000  0.00000000  0.00000000
   0.50000000  0.50000000  0.00000000

 position of ions in cartesian coordinates  (Angst):
   1.48953110  1.48953110  1.60118505
   4.47320121  1.48953110  1.60118505
   1.48953110  4.47320121  1.60118505
   4.47320121  4.47320121  1.60118505
   1.48953110  1.48953110  4.36154726
   4.47320121  1.48953110  4.36154726
   1.48953110  4.47320121  4.36154726
   4.47320121  4.47320121  4.36154726
   2.98136615  0.00000000  0.00000000
   0.00000000  2.98136615  0.00000000
   0.00000000  0.00000000  2.98136615
   2.98136615  0.00000000  2.98136615
   2.98136615  2.98136615  2.98136615
   0.00000000  2.98136615  2.98136615
   0.00000000  0.00000000  0.00000000
   2.98136615  2.98136615  0.00000000



--------------------------------------------------------------------------------------------------------


 k-point  1 :   0.0000 0.0000 0.0000  plane waves:    6235
 k-point  2 :   0.1429 0.0000 0.0000  plane waves:    6195
 k-point  3 :   0.2857 0.0000 0.0000  plane waves:    6195
 k-point  4 :   0.4286 0.0000 0.0000  plane waves:    6218
 k-point  5 :   0.1429 0.1429 0.0000  plane waves:    6220
 k-point  6 :   0.2857 0.1429 0.0000  plane waves:    6226
 k-point  7 :   0.4286 0.1429 0.0000  plane waves:    6219
 k-point  8 :   0.2857 0.2857 0.0000  plane waves:    6202
 k-point  9 :   0.4286 0.2857 0.0000  plane waves:    6210
 k-point 10 :   0.4286 0.4286 0.0000  plane waves:    6200
 k-point 11 :   0.0000 0.0000 0.1429  plane waves:    6195
 k-point 12 :   0.1429 0.0000 0.1429  plane waves:    6220
 k-point 13 :   0.2857 0.0000 0.1429  plane waves:    6226
 k-point 14 :   0.4286 0.0000 0.1429  plane waves:    6219
 k-point 15 :   0.1429 0.1429 0.1429  plane waves:    6217
 k-point 16 :   0.2857 0.1429 0.1429  plane waves:    6222
 k-point 17 :   0.4286 0.1429 0.1429  plane waves:    6208
 k-point 18 :   0.2857 0.2857 0.1429  plane waves:    6210
 k-point 19 :   0.4286 0.2857 0.1429  plane waves:    6211
 k-point 20 :   0.4286 0.4286 0.1429  plane waves:    6217
 k-point 21 :   0.0000 0.0000 0.2857  plane waves:    6195
 k-point 22 :   0.1429 0.0000 0.2857  plane waves:    6226
 k-point 23 :   0.2857 0.0000 0.2857  plane waves:    6202
 k-point 24 :   0.4286 0.0000 0.2857  plane waves:    6210
 k-point 25 :   0.1429 0.1429 0.2857  plane waves:    6222
 k-point 26 :   0.2857 0.1429 0.2857  plane waves:    6210
 k-point 27 :   0.4286 0.1429 0.2857  plane waves:    6211
 k-point 28 :   0.2857 0.2857 0.2857  plane waves:    6217
 k-point 29 :   0.4286 0.2857 0.2857  plane waves:    6210
 k-point 30 :   0.4286 0.4286 0.2857  plane waves:    6178
 k-point 31 :   0.0000 0.0000 0.4286  plane waves:    6218
 k-point 32 :   0.1429 0.0000 0.4286  plane waves:    6219
 k-point 33 :   0.2857 0.0000 0.4286  plane waves:    6210
 k-point 34 :   0.4286 0.0000 0.4286  plane waves:    6200
 k-point 35 :   0.1429 0.1429 0.4286  plane waves:    6208
 k-point 36 :   0.2857 0.1429 0.4286  plane waves:    6211
 k-point 37 :   0.4286 0.1429 0.4286  plane waves:    6217
 k-point 38 :   0.2857 0.2857 0.4286  plane waves:    6210
 k-point 39 :   0.4286 0.2857 0.4286  plane waves:    6178
 k-point 40 :   0.4286 0.4286 0.4286  plane waves:    6167

 maximum and minimum number of plane-waves per node :      6235     6167

 maximum number of plane-waves:      6235
 maximum index in each direction: 
   IXMAX=   11   IYMAX=   11   IZMAX=   11
   IXMIN=  -11   IYMIN=  -11   IZMIN=  -11


 serial   3D FFT for wavefunctions
 parallel 3D FFT for charge:
    minimum data exchange during FFTs selected (reduces bandwidth)


 total amount of memory used by VASP MPI-rank0   103612. kBytes
=======================================================================

   base      :      30000. kBytes
   nonlr-proj:       6783. kBytes
   fftplans  :       1269. kBytes
   grid      :       6573. kBytes
   one-center:        497. kBytes
   wavefun   :      58490. kBytes

     INWAV:  cpu time    0.0000: real time    0.0001
 Broyden mixing: mesh for mixing (old mesh)
   NGX = 23   NGY = 23   NGZ = 23
  (NGX  = 72   NGY  = 72   NGZ  = 72)
  gives a total of  12167 points

 initial charge density was supplied:
 charge density of overlapping atoms calculated
 number of electron     128.0000000 magnetization      16.8000000
 keeping initial charge density in first step


--------------------------------------------------------------------------------------------------------


 Maximum index for non-local projection operator         3887
 Maximum index for augmentation-charges         2111 (set IRDMAX)


--------------------------------------------------------------------------------------------------------


 First call to EWALD:  gamma=   0.297
 Maximum number of real-space cells 3x 3x 3
 Maximum number of reciprocal cells 3x 3x 3

    FEWALD:  cpu time    0.0020: real time    0.0020


--------------------------------------- Iteration      1(   1)  ---------------------------------------


    POTLOK:  cpu time    0.1061: real time    0.1119
    SETDIJ:  cpu time    0.0378: real time    0.0379
     EDDAV:  cpu time   23.4065: real time   23.4474
       DOS:  cpu time    0.0034: real time    0.0035
    --------------------------------------------
      LOOP:  cpu time   23.5539: real time   23.6007

 eigenvalue-minimisations  : 13440
 total energy-change (2. order) : 0.1067509E+04  (-0.5442947E+04)
 number of electron     128.0000000 magnetization      16.8000000
 augmentation part      128.0000000 magnetization      16.8000000

 Free energy of the ion-electron system (eV)
  ---------------------------------------------------
  alpha Z        PSCENC =       530.77617372
  Ewald energy   TEWEN  =     -9280.47317383
  -Hartree energ DENC   =     -3143.90369658
  -exchange      EXHF   =         0.00000000
  -V(xc)+E(xc)   XCENC  =        78.37349545
  PAW double counting   =     10320.96726947   -10647.99417394
  entropy T*S    EENTRO =        -0.00133214
  eigenvalues    EBANDS =      1980.30284031
  atomic energy  EATOM  =     11229.46195210
  Solvation  Ediel_sol  =         0.00000000
  ---------------------------------------------------
  free energy    TOTEN  =      1067.50935456 eV

  energy without entropy =     1067.51068670  energy(sigma->0) =     1067.51002063


--------------------------------------------------------------------------------------------------------




--------------------------------------- Iteration      1(   2)  ---------------------------------------


     EDDAV:  cpu time   24.1933: real time   24.2292
       DOS:  cpu time    0.0036: real time    0.0036
    --------------------------------------------
      LOOP:  cpu time   24.1969: real time   24.2328

 eigenvalue-minimisations  : 13440
 total energy-change (2. order) :-0.1065332E+04  (-0.1031741E+04)
 number of electron     128.0000000 magnetization      16.8000000
 augmentation part      128.0000000 magnetization      16.8000000

 Free energy of the ion-electron system (eV)
  ---------------------------------------------------
  alpha Z        PSCENC =       530.77617372
  Ewald energy   TEWEN  =     -9280.47317383
  -Hartree energ DENC   =     -3143.90369658
  -exchange      EXHF   =         0.00000000
  -V(xc)+E(xc)   XCENC  =        78.37349545
  PAW double counting   =     10320.96726947   -10647.99417394
  entropy T*S    EENTRO =        -0.00249353
  eigenvalues    EBANDS =       914.97180456
  atomic energy  EATOM  =     11229.46195210
  Solvation  Ediel_sol  =         0.00000000
  ---------------------------------------------------
  free energy    TOTEN  =         2.17715742 eV

  energy without entropy =        2.17965095  energy(sigma->0) =        2.17840418


--------------------------------------------------------------------------------------------------------




--------------------------------------- Iteration      1(   3)  ---------------------------------------


     EDDAV:  cpu time   25.8426: real time   25.8810
       DOS:  cpu time    0.0037: real time    0.0037
    --------------------------------------------
      LOOP:  cpu time   25.8463: real time   25.8847

 eigenvalue-minimisations  : 15252
 total energy-change (2. order) :-0.1118353E+03  (-0.9879566E+02)
 number of electron     128.0000000 magnetization      16.8000000
 augmentation part      128.0000000 magnetization      16.8000000

 Free energy of the ion-electron system (eV)
  ---------------------------------------------------
  alpha Z        PSCENC =       530.77617372
  Ewald energy   TEWEN  =     -9280.47317383
  -Hartree energ DENC   =     -3143.90369658
  -exchange      EXHF   =         0.00000000
  -V(xc)+E(xc)   XCENC  =        78.37349545
  PAW double counting   =     10320.96726947   -10647.99417394
  entropy T*S    EENTRO =        -0.00283815
  eigenvalues    EBANDS =       803.13682861
  atomic energy  EATOM  =     11229.46195210
  Solvation  Ediel_sol  =         0.00000000
  ---------------------------------------------------
  free energy    TOTEN  =      -109.65816315 eV

  energy without entropy =     -109.65532500  energy(sigma->0) =     -109.65674408


--------------------------------------------------------------------------------------------------------




--------------------------------------- Iteration      1(   4)  ---------------------------------------


     EDDAV:  cpu time   31.9229: real time   31.9702
       DOS:  cpu time    0.0036: real time    0.0036
    --------------------------------------------
      LOOP:  cpu time   31.9265: real time   31.9738

 eigenvalue-minimisations  : 19728
 total energy-change (2. order) :-0.6788820E+01  (-0.6374737E+01)
 number of electron     128.0000000 magnetization      16.8000000
 augmentation part      128.0000000 magnetization      16.8000000

 Free energy of the ion-electron system (eV)
  ---------------------------------------------------
  alpha Z        PSCENC =       530.77617372
  Ewald energy   TEWEN  =     -9280.47317383
  -Hartree energ DENC   =     -3143.90369658
  -exchange      EXHF   =         0.00000000
  -V(xc)+E(xc)   XCENC  =        78.37349545
  PAW double counting   =     10320.96726947   -10647.99417394
  entropy T*S    EENTRO =        -0.00283684
  eigenvalues    EBANDS =       796.34800696
  atomic energy  EATOM  =     11229.46195210
  Solvation  Ediel_sol  =         0.00000000
  ---------------------------------------------------
  free energy    TOTEN  =      -116.44698349 eV

  energy without entropy =     -116.44414666  energy(sigma->0) =     -116.44556507


--------------------------------------------------------------------------------------------------------




--------------------------------------- Iteration      1(   5)  ---------------------------------------


     EDDAV:  cpu time   31.5221: real time   31.5689
       DOS:  cpu time    0.0037: real time    0.0037
    CHARGE:  cpu time    0.6451: real time    0.6459
    MIXING:  cpu time    0.0016: real time    0.0016
    --------------------------------------------
      LOOP:  cpu time   32.1725: real time   32.2200

 eigenvalue-minimisations  : 19500
 total energy-change (2. order) :-0.2489732E+00  (-0.2476431E+00)
 number of electron     127.9999904 magnetization      14.9845233
 augmentation part       60.6078248 magnetization       9.4391167

 Broyden mixing:
  rms(total) = 0.34611E+01    rms(broyden)= 0.34610E+01
  rms(prec ) = 0.53465E+01
  weight for this iteration     100.00

 Free energy of the ion-electron system (eV)
  ---------------------------------------------------
  alpha Z        PSCENC =       530.77617372
  Ewald energy   TEWEN  =     -9280.47317383
  -Hartree energ DENC   =     -3143.90369658
  -exchange      EXHF   =         0.00000000
  -V(xc)+E(xc)   XCENC  =        78.37349545
  PAW double counting   =     10320.96726947   -10647.99417394
  entropy T*S    EENTRO =        -0.00286472
  eigenvalues    EBANDS =       796.09906167
  atomic energy  EATOM  =     11229.46195210
  Solvation  Ediel_sol  =         0.00000000
  ---------------------------------------------------
  free energy    TOTEN  =      -116.69595666 eV

  energy without entropy =     -116.69309194  energy(sigma->0) =     -116.69452430


--------------------------------------------------------------------------------------------------------




--------------------------------------- Iteration      1(   6)  ---------------------------------------


    POTLOK:  cpu time    0.1003: real time    0.1019
    SETDIJ:  cpu time    0.0357: real time    0.0357
    EDDIAG:  cpu time    3.2388: real time    3.2418
  RMM-DIIS:  cpu time   10.6182: real time   10.6290
    ORTHCH:  cpu time    0.6266: real time    0.6272
       DOS:  cpu time    0.0037: real time    0.0037
    CHARGE:  cpu time    0.6471: real time    0.6479
    MIXING:  cpu time    0.0017: real time    0.0017
    --------------------------------------------
      LOOP:  cpu time   15.2722: real time   15.2889

 eigenvalue-minimisations  : 13440
 total energy-change (2. order) : 0.5714287E+01  (-0.1731014E+02)
 number of electron     128.0000003 magnetization      14.8850565
 augmentation part       69.5585210 magnetization      11.4672563

 Broyden mixing:
  rms(total) = 0.48140E+01    rms(broyden)= 0.48139E+01
  rms(prec ) = 0.66825E+01
  weight for this iteration     100.00

 eigenvalues of (default mixing * dielectric matrix)
  average eigenvalue GAMMA=   0.2154
  0.2154

 Free energy of the ion-electron system (eV)
  ---------------------------------------------------
  alpha Z        PSCENC =       530.77617372
  Ewald energy   TEWEN  =     -9280.47317383
  -Hartree energ DENC   =     -2909.84534436
  -exchange      EXHF   =         0.00000000
  -V(xc)+E(xc)   XCENC  =        66.44882532
  PAW double counting   =     11120.95724536   -11414.13610046
  entropy T*S    EENTRO =        -0.00444671
  eigenvalues    EBANDS =       545.83319937
  atomic energy  EATOM  =     11229.46195210
  Solvation  Ediel_sol  =         0.00000000
  ---------------------------------------------------
  free energy    TOTEN  =      -110.98166949 eV

  energy without entropy =     -110.97722277  energy(sigma->0) =     -110.97944613


--------------------------------------------------------------------------------------------------------




--------------------------------------- Iteration      1(   7)  ---------------------------------------


    POTLOK:  cpu time    0.0967: real time    0.0968
    SETDIJ:  cpu time    0.0357: real time    0.0357
    EDDIAG:  cpu time    3.2437: real time    3.2479
  RMM-DIIS:  cpu time   10.5726: real time   10.5871
    ORTHCH:  cpu time    0.6209: real time    0.6227
       DOS:  cpu time    0.0037: real time    0.0038
    CHARGE:  cpu time    0.6373: real time    0.6380
    MIXING:  cpu time    0.0017: real time    0.0017
    --------------------------------------------
      LOOP:  cpu time   15.2124: real time   15.2336

 eigenvalue-minimisations  : 13454
 total energy-change (2. order) :-0.6694422E-01  (-0.3398100E+01)
 number of electron     127.9999882 magnetization      14.6090396
 augmentation part       70.5365089 magnetization       9.8894575

 Broyden mixing:
  rms(total) = 0.34043E+01    rms(broyden)= 0.34042E+01
  rms(prec ) = 0.57491E+01
  weight for this iteration     100.00

 eigenvalues of (default mixing * dielectric matrix)
  average eigenvalue GAMMA=   0.4335
  0.4947  0.3723

 Free energy of the ion-electron system (eV)
  ---------------------------------------------------
  alpha Z        PSCENC =       530.77617372
  Ewald energy   TEWEN  =     -9280.47317383
  -Hartree energ DENC   =     -2891.92804302
  -exchange      EXHF   =         0.00000000
  -V(xc)+E(xc)   XCENC  =        66.29303289
  PAW double counting   =     11379.34363188   -11676.42957533
  entropy T*S    EENTRO =        -0.00270216
  eigenvalues    EBANDS =       531.91009004
  atomic energy  EATOM  =     11229.46195210
  Solvation  Ediel_sol  =         0.00000000
  ---------------------------------------------------
  free energy    TOTEN  =      -111.04861371 eV

  energy without entropy =     -111.04591155  energy(sigma->0) =     -111.04726263


--------------------------------------------------------------------------------------------------------




--------------------------------------- Iteration      1(   8)  ---------------------------------------


    POTLOK:  cpu time    0.0967: real time    0.0968
    SETDIJ:  cpu time    0.0355: real time    0.0355
    EDDIAG:  cpu time    3.2523: real time    3.2561
  RMM-DIIS:  cpu time   10.6546: real time   10.6693
    ORTHCH:  cpu time    0.6250: real time    0.6257
       DOS:  cpu time    0.0037: real time    0.0037
    CHARGE:  cpu time    0.6506: real time    0.6515
    MIXING:  cpu time    0.0018: real time    0.0018
    --------------------------------------------
      LOOP:  cpu time   15.3202: real time   15.3405

 eigenvalue-minimisations  : 13440
 total energy-change (2. order) : 0.7224738E+01  (-0.2042100E+01)
 number of electron     127.9999952 magnetization      15.4855760
 augmentation part       67.5082479 magnetization      11.3017164

 Broyden mixing:
  rms(total) = 0.14643E+01    rms(broyden)= 0.14642E+01
  rms(prec ) = 0.23613E+01
  weight for this iteration     100.00

 eigenvalues of (default mixing * dielectric matrix)
  average eigenvalue GAMMA=   0.5031
  0.7665  0.5414  0.2014

 Free energy of the ion-electron system (eV)
  ---------------------------------------------------
  alpha Z        PSCENC =       530.77617372
  Ewald energy   TEWEN  =     -9280.47317383
  -Hartree energ DENC   =     -2958.22985901
  -exchange      EXHF   =         0.00000000
  -V(xc)+E(xc)   XCENC  =        70.80410550
  PAW double counting   =     11799.55242568   -12125.12584655
  entropy T*S    EENTRO =        -0.00384032
  eigenvalues    EBANDS =       629.41418667
  atomic energy  EATOM  =     11229.46195210
  Solvation  Ediel_sol  =         0.00000000
  ---------------------------------------------------
  free energy    TOTEN  =      -103.82387604 eV

  energy without entropy =     -103.82003572  energy(sigma->0) =     -103.82195588


--------------------------------------------------------------------------------------------------------




--------------------------------------- Iteration      1(   9)  ---------------------------------------


    POTLOK:  cpu time    0.0968: real time    0.0969
    SETDIJ:  cpu time    0.0355: real time    0.0355
    EDDIAG:  cpu time    3.2692: real time    3.2755
  RMM-DIIS:  cpu time   10.6420: real time   10.6575
    ORTHCH:  cpu time    0.6238: real time    0.6245
       DOS:  cpu time    0.0039: real time    0.0039
    CHARGE:  cpu time    0.6507: real time    0.6513
    MIXING:  cpu time    0.0018: real time    0.0018
    --------------------------------------------
      LOOP:  cpu time   15.3237: real time   15.3470

 eigenvalue-minimisations  : 13566
 total energy-change (2. order) : 0.2783157E+00  (-0.2267019E+00)
 number of electron     127.9999949 magnetization      16.5489573
 augmentation part       67.3050652 magnetization      11.8426990

 Broyden mixing:
  rms(total) = 0.10445E+01    rms(broyden)= 0.10445E+01
  rms(prec ) = 0.15406E+01
  weight for this iteration     100.00

 eigenvalues of (default mixing * dielectric matrix)
  average eigenvalue GAMMA=   0.5422
  0.9269  0.2019  0.6013  0.4387

 Free energy of the ion-electron system (eV)
  ---------------------------------------------------
  alpha Z        PSCENC =       530.77617372
  Ewald energy   TEWEN  =     -9280.47317383
  -Hartree energ DENC   =     -2956.35179702
  -exchange      EXHF   =         0.00000000
  -V(xc)+E(xc)   XCENC  =        72.62267513
  PAW double counting   =     12106.00881907   -12439.37586937
  entropy T*S    EENTRO =        -0.00297127
  eigenvalues    EBANDS =       633.78863115
  atomic energy  EATOM  =     11229.46195210
  Solvation  Ediel_sol  =         0.00000000
  ---------------------------------------------------
  free energy    TOTEN  =      -103.54556033 eV

  energy without entropy =     -103.54258906  energy(sigma->0) =     -103.54407469


--------------------------------------------------------------------------------------------------------




--------------------------------------- Iteration      1(  10)  ---------------------------------------


    POTLOK:  cpu time    0.1039: real time    0.1155
    SETDIJ:  cpu time    0.0377: real time    0.0377
    EDDIAG:  cpu time    3.3453: real time    3.3488
  RMM-DIIS:  cpu time   10.6246: real time   10.6388
    ORTHCH:  cpu time    0.6248: real time    0.6256
       DOS:  cpu time    0.0038: real time    0.0038
    CHARGE:  cpu time    0.6495: real time    0.6505
    MIXING:  cpu time    0.0020: real time    0.0020
    --------------------------------------------
      LOOP:  cpu time   15.3916: real time   15.4227

 eigenvalue-minimisations  : 13447
 total energy-change (2. order) : 0.1397688E+00  (-0.1237262E+00)
 number of electron     127.9999933 magnetization      17.8282220
 augmentation part       67.8548649 magnetization      13.2664367

 Broyden mixing:
  rms(total) = 0.59023E+00    rms(broyden)= 0.59019E+00
  rms(prec ) = 0.92288E+00
  weight for this iteration     100.00

 eigenvalues of (default mixing * dielectric matrix)
  average eigenvalue GAMMA=   0.6749
  1.5446  0.7936  0.5778  0.2057  0.2526

 Free energy of the ion-electron system (eV)
  ---------------------------------------------------
  alpha Z        PSCENC =       530.77617372
  Ewald energy   TEWEN  =     -9280.47317383
  -Hartree energ DENC   =     -2944.80301401
  -exchange      EXHF   =         0.00000000
  -V(xc)+E(xc)   XCENC  =        73.72893070
  PAW double counting   =     12328.05919169   -12663.48189842
  entropy T*S    EENTRO =        -0.00271007
  eigenvalues    EBANDS =       623.32875659
  atomic energy  EATOM  =     11229.46195210
  Solvation  Ediel_sol  =         0.00000000
  ---------------------------------------------------
  free energy    TOTEN  =      -103.40579154 eV

  energy without entropy =     -103.40308147  energy(sigma->0) =     -103.40443651


--------------------------------------------------------------------------------------------------------




--------------------------------------- Iteration      1(  11)  ---------------------------------------


    POTLOK:  cpu time    0.0968: real time    0.0969
    SETDIJ:  cpu time    0.0355: real time    0.0355
    EDDIAG:  cpu time    3.2841: real time    3.2872
  RMM-DIIS:  cpu time   10.9979: real time   11.0077
    ORTHCH:  cpu time    0.6259: real time    0.6265
       DOS:  cpu time    0.0036: real time    0.0037
    CHARGE:  cpu time    0.6585: real time    0.6589
    MIXING:  cpu time    0.0020: real time    0.0020
    --------------------------------------------
      LOOP:  cpu time   15.7043: real time   15.7184

 eigenvalue-minimisations  : 13940
 total energy-change (2. order) : 0.5597945E-01  (-0.4712387E-01)
 number of electron     127.9999943 magnetization      18.0578817
 augmentation part       67.6688427 magnetization      13.2639296

 Broyden mixing:
  rms(total) = 0.33325E+00    rms(broyden)= 0.33321E+00
  rms(prec ) = 0.49692E+00
  weight for this iteration     100.00

 eigenvalues of (default mixing * dielectric matrix)
  average eigenvalue GAMMA=   0.7021
  1.8679  0.6416  0.6416  0.6217  0.2110  0.2285

 Free energy of the ion-electron system (eV)
  ---------------------------------------------------
  alpha Z        PSCENC =       530.77617372
  Ewald energy   TEWEN  =     -9280.47317383
  -Hartree energ DENC   =     -2943.20344211
  -exchange      EXHF   =         0.00000000
  -V(xc)+E(xc)   XCENC  =        75.98306485
  PAW double counting   =     12673.49479032   -13015.87194185
  entropy T*S    EENTRO =        -0.00198687
  eigenvalues    EBANDS =       626.48475159
  atomic energy  EATOM  =     11229.46195210
  Solvation  Ediel_sol  =         0.00000000
  ---------------------------------------------------
  free energy    TOTEN  =      -103.34981208 eV

  energy without entropy =     -103.34782522  energy(sigma->0) =     -103.34881865


--------------------------------------------------------------------------------------------------------




--------------------------------------- Iteration      1(  12)  ---------------------------------------


    POTLOK:  cpu time    0.0971: real time    0.0972
    SETDIJ:  cpu time    0.0355: real time    0.0355
    EDDIAG:  cpu time    3.2833: real time    3.2863
  RMM-DIIS:  cpu time   10.9094: real time   10.9190
    ORTHCH:  cpu time    0.6243: real time    0.6248
       DOS:  cpu time    0.0037: real time    0.0037
    CHARGE:  cpu time    0.6554: real time    0.6558
    MIXING:  cpu time    0.0022: real time    0.0022
    --------------------------------------------
      LOOP:  cpu time   15.6107: real time   15.6245

 eigenvalue-minimisations  : 13815
 total energy-change (2. order) : 0.1330590E-01  (-0.1582639E-01)
 number of electron     127.9999943 magnetization      18.1432126
 augmentation part       67.6339508 magnetization      13.4502226

 Broyden mixing:
  rms(total) = 0.25905E+00    rms(broyden)= 0.25905E+00
  rms(prec ) = 0.36219E+00
  weight for this iteration     100.00

 eigenvalues of (default mixing * dielectric matrix)
  average eigenvalue GAMMA=   0.6832
  2.0571  0.7143  0.7143  0.5778  0.2943  0.2124  0.2124

 Free energy of the ion-electron system (eV)
  ---------------------------------------------------
  alpha Z        PSCENC =       530.77617372
  Ewald energy   TEWEN  =     -9280.47317383
  -Hartree energ DENC   =     -2942.10001697
  -exchange      EXHF   =         0.00000000
  -V(xc)+E(xc)   XCENC  =        75.99531244
  PAW double counting   =     12765.42177068   -13109.18749259
  entropy T*S    EENTRO =        -0.00200878
  eigenvalues    EBANDS =       626.77097705
  atomic energy  EATOM  =     11229.46195210
  Solvation  Ediel_sol  =         0.00000000
  ---------------------------------------------------
  free energy    TOTEN  =      -103.33650619 eV

  energy without entropy =     -103.33449741  energy(sigma->0) =     -103.33550180


--------------------------------------------------------------------------------------------------------




--------------------------------------- Iteration      1(  13)  ---------------------------------------


    POTLOK:  cpu time    0.0972: real time    0.0973
    SETDIJ:  cpu time    0.0354: real time    0.0355
    EDDIAG:  cpu time    3.2848: real time    3.2879
  RMM-DIIS:  cpu time   10.6382: real time   10.6476
    ORTHCH:  cpu time    0.6241: real time    0.6246
       DOS:  cpu time    0.0034: real time    0.0035
    CHARGE:  cpu time    0.6545: real time    0.6549
    MIXING:  cpu time    0.0023: real time    0.0023
    --------------------------------------------
      LOOP:  cpu time   15.3399: real time   15.3535

 eigenvalue-minimisations  : 13585
 total energy-change (2. order) : 0.1809379E-01  (-0.3547411E-02)
 number of electron     127.9999942 magnetization      18.0877625
 augmentation part       67.7008531 magnetization      13.3072943

 Broyden mixing:
  rms(total) = 0.11917E+00    rms(broyden)= 0.11917E+00
  rms(prec ) = 0.14293E+00
  weight for this iteration     100.00

 eigenvalues of (default mixing * dielectric matrix)
  average eigenvalue GAMMA=   0.7732
  2.3018  0.9401  0.9401  0.6661  0.6399  0.2670  0.2154  0.2154

 Free energy of the ion-electron system (eV)
  ---------------------------------------------------
  alpha Z        PSCENC =       530.77617372
  Ewald energy   TEWEN  =     -9280.47317383
  -Hartree energ DENC   =     -2939.87529313
  -exchange      EXHF   =         0.00000000
  -V(xc)+E(xc)   XCENC  =        75.80363963
  PAW double counting   =     12832.70250817   -13177.03994887
  entropy T*S    EENTRO =        -0.00197560
  eigenvalues    EBANDS =       625.32770541
  atomic energy  EATOM  =     11229.46195210
  Solvation  Ediel_sol  =         0.00000000
  ---------------------------------------------------
  free energy    TOTEN  =      -103.31841239 eV

  energy without entropy =     -103.31643679  energy(sigma->0) =     -103.31742459


--------------------------------------------------------------------------------------------------------




--------------------------------------- Iteration      1(  14)  ---------------------------------------


    POTLOK:  cpu time    0.1033: real time    0.1069
    SETDIJ:  cpu time    0.0380: real time    0.0381
    EDDIAG:  cpu time    3.3735: real time    3.3787
  RMM-DIIS:  cpu time   11.0710: real time   11.0884
    ORTHCH:  cpu time    0.6264: real time    0.6271
       DOS:  cpu time    0.0033: real time    0.0033
    CHARGE:  cpu time    0.6630: real time    0.6637
    MIXING:  cpu time    0.0024: real time    0.0024
    --------------------------------------------
      LOOP:  cpu time   15.8809: real time   15.9088

 eigenvalue-minimisations  : 13949
 total energy-change (2. order) :-0.1204926E-03  (-0.2458839E-02)
 number of electron     127.9999943 magnetization      18.0564988
 augmentation part       67.7290748 magnetization      13.2592299

 Broyden mixing:
  rms(total) = 0.71251E-01    rms(broyden)= 0.71251E-01
  rms(prec ) = 0.96865E-01
  weight for this iteration     100.00

 eigenvalues of (default mixing * dielectric matrix)
  average eigenvalue GAMMA=   0.7672
  2.3497  1.0086  1.0086  0.6700  0.5807  0.5807  0.2142  0.2179  0.2740

 Free energy of the ion-electron system (eV)
  ---------------------------------------------------
  alpha Z        PSCENC =       530.77617372
  Ewald energy   TEWEN  =     -9280.47317383
  -Hartree energ DENC   =     -2938.26697734
  -exchange      EXHF   =         0.00000000
  -V(xc)+E(xc)   XCENC  =        75.68927157
  PAW double counting   =     12890.22744980   -13235.04245110
  entropy T*S    EENTRO =        -0.00203497
  eigenvalues    EBANDS =       624.31125718
  atomic energy  EATOM  =     11229.46195210
  Solvation  Ediel_sol  =         0.00000000
  ---------------------------------------------------
  free energy    TOTEN  =      -103.31853289 eV

  energy without entropy =     -103.31649791  energy(sigma->0) =     -103.31751540


--------------------------------------------------------------------------------------------------------




--------------------------------------- Iteration      1(  15)  ---------------------------------------


    POTLOK:  cpu time    0.0982: real time    0.0984
    SETDIJ:  cpu time    0.0356: real time    0.0356
    EDDIAG:  cpu time    3.3088: real time    3.3135
  RMM-DIIS:  cpu time   10.8494: real time   10.8652
    ORTHCH:  cpu time    0.6270: real time    0.6277
       DOS:  cpu time    0.0038: real time    0.0038
    CHARGE:  cpu time    0.6604: real time    0.6612
    MIXING:  cpu time    0.0027: real time    0.0027
    --------------------------------------------
      LOOP:  cpu time   15.5856: real time   15.6080

 eigenvalue-minimisations  : 13793
 total energy-change (2. order) : 0.1184708E-02  (-0.8537638E-03)
 number of electron     127.9999942 magnetization      18.0398393
 augmentation part       67.7542784 magnetization      13.2430843

 Broyden mixing:
  rms(total) = 0.44272E-01    rms(broyden)= 0.44272E-01
  rms(prec ) = 0.59817E-01
  weight for this iteration     100.00

 eigenvalues of (default mixing * dielectric matrix)
  average eigenvalue GAMMA=   0.8023
  2.4707  1.5797  0.8644  0.8644  0.6166  0.6166  0.2142  0.2179  0.2781  0.3007

 Free energy of the ion-electron system (eV)
  ---------------------------------------------------
  alpha Z        PSCENC =       530.77617372
  Ewald energy   TEWEN  =     -9280.47317383
  -Hartree energ DENC   =     -2937.78173339
  -exchange      EXHF   =         0.00000000
  -V(xc)+E(xc)   XCENC  =        75.63673682
  PAW double counting   =     12898.95087496   -13243.71355249
  entropy T*S    EENTRO =        -0.00202082
  eigenvalues    EBANDS =       623.82739475
  atomic energy  EATOM  =     11229.46195210
  Solvation  Ediel_sol  =         0.00000000
  ---------------------------------------------------
  free energy    TOTEN  =      -103.31734818 eV

  energy without entropy =     -103.31532736  energy(sigma->0) =     -103.31633777


--------------------------------------------------------------------------------------------------------




--------------------------------------- Iteration      1(  16)  ---------------------------------------


    POTLOK:  cpu time    0.0972: real time    0.0973
    SETDIJ:  cpu time    0.0357: real time    0.0357
    EDDIAG:  cpu time    3.3115: real time    3.3162
  RMM-DIIS:  cpu time   10.9995: real time   11.0152
    ORTHCH:  cpu time    0.6216: real time    0.6225
       DOS:  cpu time    0.0035: real time    0.0035
    CHARGE:  cpu time    0.6714: real time    0.6721
    MIXING:  cpu time    0.0028: real time    0.0028
    --------------------------------------------
      LOOP:  cpu time   15.7432: real time   15.7654

 eigenvalue-minimisations  : 13935
 total energy-change (2. order) : 0.3553421E-03  (-0.1931508E-03)
 number of electron     127.9999943 magnetization      18.0370965
 augmentation part       67.7372743 magnetization      13.2441008

 Broyden mixing:
  rms(total) = 0.16957E-01    rms(broyden)= 0.16957E-01
  rms(prec ) = 0.22392E-01
  weight for this iteration     100.00

 eigenvalues of (default mixing * dielectric matrix)
  average eigenvalue GAMMA=   0.8771
  2.4470  2.2531  0.9770  0.9770  0.7323  0.6208  0.6208  0.2138  0.2183  0.2714
  0.3161

 Free energy of the ion-electron system (eV)
  ---------------------------------------------------
  alpha Z        PSCENC =       530.77617372
  Ewald energy   TEWEN  =     -9280.47317383
  -Hartree energ DENC   =     -2938.17273436
  -exchange      EXHF   =         0.00000000
  -V(xc)+E(xc)   XCENC  =        75.67037053
  PAW double counting   =     12904.86745535   -13249.69734028
  entropy T*S    EENTRO =        -0.00203706
  eigenvalues    EBANDS =       624.25234100
  atomic energy  EATOM  =     11229.46195210
  Solvation  Ediel_sol  =         0.00000000
  ---------------------------------------------------
  free energy    TOTEN  =      -103.31699283 eV

  energy without entropy =     -103.31495577  energy(sigma->0) =     -103.31597430


--------------------------------------------------------------------------------------------------------




--------------------------------------- Iteration      1(  17)  ---------------------------------------


    POTLOK:  cpu time    0.0969: real time    0.0970
    SETDIJ:  cpu time    0.0354: real time    0.0355
    EDDIAG:  cpu time    3.3250: real time    3.3296
  RMM-DIIS:  cpu time   11.2699: real time   11.2863
    ORTHCH:  cpu time    0.6221: real time    0.6229
       DOS:  cpu time    0.0037: real time    0.0038
    CHARGE:  cpu time    0.6636: real time    0.6644
    MIXING:  cpu time    0.0030: real time    0.0030
    --------------------------------------------
      LOOP:  cpu time   16.0195: real time   16.0425

 eigenvalue-minimisations  : 14049
 total energy-change (2. order) : 0.8641548E-04  (-0.4595003E-04)
 number of electron     127.9999943 magnetization      18.0424968
 augmentation part       67.7329719 magnetization      13.2462273

 Broyden mixing:
  rms(total) = 0.63221E-02    rms(broyden)= 0.63220E-02
  rms(prec ) = 0.76650E-02
  weight for this iteration     100.00

 eigenvalues of (default mixing * dielectric matrix)
  average eigenvalue GAMMA=   0.8918
  2.4250  2.4250  1.0268  1.0268  0.7776  0.7776  0.6082  0.6082  0.2138  0.2183
  0.2713  0.3222

 Free energy of the ion-electron system (eV)
  ---------------------------------------------------
  alpha Z        PSCENC =       530.77617372
  Ewald energy   TEWEN  =     -9280.47317383
  -Hartree energ DENC   =     -2938.48949984
  -exchange      EXHF   =         0.00000000
  -V(xc)+E(xc)   XCENC  =        75.69910500
  PAW double counting   =     12900.97495597   -13245.69705364
  entropy T*S    EENTRO =        -0.00203092
  eigenvalues    EBANDS =       624.43266503
  atomic energy  EATOM  =     11229.46195210
  Solvation  Ediel_sol  =         0.00000000
  ---------------------------------------------------
  free energy    TOTEN  =      -103.31690642 eV

  energy without entropy =     -103.31487550  energy(sigma->0) =     -103.31589096


--------------------------------------------------------------------------------------------------------




--------------------------------------- Iteration      1(  18)  ---------------------------------------


    POTLOK:  cpu time    0.1032: real time    0.1040
    SETDIJ:  cpu time    0.0379: real time    0.0379
    EDDIAG:  cpu time    3.4086: real time    3.4132
  RMM-DIIS:  cpu time   10.0225: real time   10.0365
    ORTHCH:  cpu time    0.6259: real time    0.6267
       DOS:  cpu time    0.0037: real time    0.0037
    --------------------------------------------
      LOOP:  cpu time   14.2018: real time   14.2220

 eigenvalue-minimisations  : 12325
 total energy-change (2. order) : 0.7658942E-05  (-0.8511898E-05)
 number of electron     127.9999943 magnetization      18.0424968
 augmentation part       67.7329719 magnetization      13.2462273

 Free energy of the ion-electron system (eV)
  ---------------------------------------------------
  alpha Z        PSCENC =       530.77617372
  Ewald energy   TEWEN  =     -9280.47317383
  -Hartree energ DENC   =     -2938.54897286
  -exchange      EXHF   =         0.00000000
  -V(xc)+E(xc)   XCENC  =        75.70210799
  PAW double counting   =     12898.68146045   -13243.33908972
  entropy T*S    EENTRO =        -0.00203294
  eigenvalues    EBANDS =       624.42467633
  atomic energy  EATOM  =     11229.46195210
  Solvation  Ediel_sol  =         0.00000000
  ---------------------------------------------------
  free energy    TOTEN  =      -103.31689876 eV

[...]
     84      12.2357      0.00000


--------------------------------------------------------------------------------------------------------


 soft charge-density along one line, spin component           1
         0         1         2         3         4         5         6         7         8         9
 total charge-density along one line

 soft charge-density along one line, spin component           2
         0         1         2         3         4         5         6         7         8         9
 total charge-density along one line

 pseudopotential strength for first ion, spin component:           1
 -1.817   0.011  -0.027   0.011   0.000  -2.444   0.011  -0.026
  0.011  -1.812  -0.006  -0.014   0.009   0.011  -2.440  -0.006
 -0.027  -0.006  -1.872  -0.006  -0.000  -0.026  -0.006  -2.497
  0.011  -0.014  -0.006  -1.812  -0.009   0.011  -0.014  -0.006
  0.000   0.009  -0.000  -0.009  -1.878   0.000   0.009  -0.000
 -2.444   0.011  -0.026   0.011   0.000  -3.002   0.010  -0.024
  0.011  -2.440  -0.006  -0.014   0.009   0.010  -2.998  -0.006
 -0.026  -0.006  -2.497  -0.006  -0.000  -0.024  -0.006  -3.053
  0.011  -0.014  -0.006  -2.440  -0.009   0.010  -0.014  -0.006
  0.000   0.009  -0.000  -0.009  -2.502   0.000   0.008  -0.000
 -0.006   0.002  -0.001   0.002  -0.000  -0.006   0.002  -0.001
 -0.011   0.003  -0.002   0.003  -0.000  -0.011   0.003  -0.002
  0.002  -0.007  -0.000   0.001  -0.001   0.002  -0.007  -0.000
  0.001   0.002  -0.011   0.002   0.000   0.001   0.002  -0.010
  0.002   0.001  -0.000  -0.007   0.001   0.002   0.001  -0.000
  0.003  -0.007  -0.000   0.001  -0.001   0.002  -0.007  -0.000
  0.001   0.003  -0.011   0.003   0.000   0.001   0.002  -0.010
  0.003   0.001  -0.000  -0.007   0.001   0.002   0.001  -0.000
 pseudopotential strength for first ion, spin component:           2
 -1.505   0.004   0.040   0.004   0.000  -2.148   0.004   0.038
  0.004  -1.495   0.012  -0.007  -0.021   0.004  -2.138   0.012
  0.040   0.012  -1.419   0.012  -0.000   0.038   0.012  -2.064
  0.004  -0.007   0.012  -1.495   0.021   0.004  -0.006   0.012
  0.000  -0.021  -0.000   0.021  -1.421   0.000  -0.020  -0.000
 -2.148   0.004   0.038   0.004   0.000  -2.720   0.004   0.036
  0.004  -2.138   0.012  -0.006  -0.020   0.004  -2.711   0.011
  0.038   0.012  -2.064   0.012  -0.000   0.036   0.011  -2.640
  0.004  -0.006   0.012  -2.138   0.020   0.004  -0.006   0.011
  0.000  -0.020  -0.000   0.020  -2.067   0.000  -0.019  -0.000
  0.007  -0.005  -0.001  -0.005  -0.000   0.007  -0.005  -0.001
  0.012  -0.008  -0.001  -0.008  -0.000   0.012  -0.008  -0.001
 -0.002  -0.009   0.000   0.000   0.001  -0.002  -0.008   0.000
  0.000  -0.002  -0.012  -0.002   0.000   0.000  -0.002  -0.012
 -0.002   0.000   0.000  -0.009  -0.001  -0.002   0.000   0.000
 -0.003  -0.009   0.001   0.000   0.001  -0.003  -0.009   0.001
  0.000  -0.003  -0.012  -0.003   0.000   0.000  -0.003  -0.012
 -0.003   0.000   0.001  -0.009  -0.001  -0.003   0.000   0.001
 total augmentation occupancy for first ion, spin component:           1
  2.014   0.037   0.087   0.037   0.000  -0.528  -0.021  -0.078  -0.021  -0.000  -0.078   0.031  -0.006   0.041  -0.006  -0.000
  0.037   2.126   0.017   0.019  -0.024  -0.021  -0.606  -0.016  -0.039   0.021   0.018  -0.004   0.025   0.005   0.039  -0.012
  0.087   0.017   2.733   0.017  -0.000  -0.078  -0.016  -1.049  -0.016  -0.000  -0.021   0.007  -0.004  -0.067  -0.004  -0.000
  0.037   0.019   0.017   2.126   0.024  -0.021  -0.039  -0.016  -0.606  -0.021   0.018  -0.004   0.039   0.005   0.025  -0.008
 -0.000  -0.024  -0.000   0.024   2.820  -0.000   0.022  -0.000  -0.022  -1.102   0.000   0.000   0.004   0.000  -0.004   0.000
 -0.528  -0.021  -0.078  -0.021   0.000   0.827   0.012   0.056   0.012  -0.000   0.047  -0.020   0.004  -0.023   0.004   0.000
 -0.021  -0.606  -0.016  -0.039   0.022   0.012   0.881   0.013   0.048  -0.018  -0.010   0.002   0.005  -0.002  -0.022   0.001
 -0.078  -0.016  -1.049  -0.016  -0.000   0.056   0.013   1.111   0.013   0.000   0.019  -0.006   0.002   0.067   0.002   0.000
 -0.021  -0.039  -0.016  -0.606  -0.022   0.012   0.048   0.013   0.881   0.018  -0.010   0.002  -0.022  -0.002   0.005   0.005
  0.000   0.021  -0.000  -0.021  -1.102   0.000  -0.018   0.000   0.018   1.130   0.000  -0.000  -0.003   0.000   0.003   0.000
 -0.078   0.018  -0.021   0.018   0.000   0.047  -0.010   0.019  -0.010   0.000   2.114  -0.279  -0.001   0.059  -0.001  -0.000
  0.031  -0.004   0.007  -0.004   0.000  -0.020   0.002  -0.006   0.002  -0.000  -0.279   0.047  -0.000   0.001  -0.000  -0.000
 -0.006   0.025  -0.004   0.039   0.004   0.004   0.005   0.002  -0.022  -0.003  -0.001  -0.000   0.256   0.000   0.002  -0.026
  0.041   0.005  -0.067   0.005  -0.000  -0.023  -0.002   0.067  -0.002   0.000   0.059   0.001   0.000   0.260   0.000   0.000
 -0.006   0.039  -0.004   0.025  -0.004   0.004  -0.022   0.002   0.005   0.003  -0.001  -0.000   0.002   0.000   0.256  -0.002
 -0.000  -0.012  -0.000  -0.008   0.000   0.000   0.001   0.000   0.005   0.000  -0.000  -0.000  -0.026   0.000  -0.002   0.003
 -0.008  -0.001  -0.007  -0.001   0.000   0.006   0.001  -0.007   0.001   0.000  -0.007  -0.000   0.000  -0.027   0.000  -0.000
 -0.000  -0.008  -0.000  -0.012  -0.000   0.000   0.005   0.000   0.001  -0.000  -0.000  -0.000  -0.002   0.000  -0.026   0.000
 total augmentation occupancy for first ion, spin component:           2
  0.555   0.106   0.303   0.106   0.000  -0.340  -0.101  -0.164  -0.101   0.000   0.093  -0.002  -0.042  -0.000  -0.042   0.001
  0.106   0.577   0.053  -0.198  -0.149  -0.101  -0.349  -0.020   0.180   0.085  -0.060   0.001  -0.011  -0.037   0.003  -0.001
  0.303   0.053   0.839   0.053   0.000  -0.164  -0.019  -0.403  -0.019   0.000   0.015   0.004  -0.004   0.001  -0.004  -0.001
  0.106  -0.198   0.053   0.577   0.149  -0.101   0.180  -0.020  -0.349  -0.085  -0.060   0.001   0.003  -0.037  -0.011  -0.000
  0.000  -0.149   0.000   0.149   0.838   0.000   0.083   0.000  -0.083  -0.401   0.000   0.000  -0.015   0.000   0.015   0.000
 -0.340  -0.101  -0.164  -0.101   0.000   0.168   0.089   0.072   0.089   0.000  -0.060   0.011   0.027  -0.004   0.027  -0.003
 -0.101  -0.349  -0.019   0.180   0.083   0.089   0.169  -0.002  -0.154  -0.039   0.040  -0.007   0.008   0.022  -0.006   0.000
 -0.164  -0.020  -0.403  -0.020   0.000   0.072  -0.002   0.119  -0.002  -0.000  -0.011  -0.002   0.006  -0.003   0.006   0.000
 -0.101   0.180  -0.019  -0.349  -0.083   0.089  -0.154  -0.002   0.169   0.039   0.040  -0.007  -0.006   0.022   0.008   0.000
 -0.000   0.085   0.000  -0.085  -0.401   0.000  -0.039   0.000   0.039   0.117   0.000   0.000   0.016  -0.000  -0.016  -0.000
  0.093  -0.060   0.015  -0.060   0.000  -0.060   0.040  -0.011   0.040   0.000  -0.081   0.018  -0.001  -0.000  -0.001  -0.001
 -0.002   0.001   0.004   0.001   0.000   0.011  -0.007  -0.002  -0.007   0.000   0.018  -0.003  -0.003   0.001  -0.003   0.000
 -0.042  -0.011  -0.004   0.003  -0.015   0.027   0.008   0.006  -0.006   0.016  -0.001  -0.003  -0.002   0.007  -0.013   0.000
 -0.000  -0.037   0.001  -0.037  -0.000  -0.004   0.022  -0.003   0.022   0.000  -0.000   0.001   0.007  -0.006   0.007  -0.001
 -0.042   0.003  -0.004  -0.011   0.015   0.027  -0.006   0.006   0.008  -0.016  -0.001  -0.003  -0.013   0.007  -0.002   0.002
  0.001  -0.001  -0.001  -0.000   0.000  -0.003   0.000   0.000   0.000  -0.000  -0.001   0.000   0.000  -0.001   0.002   0.000
 -0.001   0.001  -0.004   0.001  -0.000   0.001  -0.002   0.002  -0.002  -0.000  -0.000  -0.000  -0.001   0.000  -0.001   0.000
  0.001  -0.000  -0.001  -0.001  -0.000  -0.003   0.000   0.000   0.000   0.000  -0.001   0.000   0.002  -0.001   0.000  -0.000


------------------------ aborting loop because EDIFF is reached ----------------------------------------





 total charge     

# of ion       s       p       d       tot
------------------------------------------
    1        0.474   0.426   8.369   9.269
    2        0.472   0.424   8.371   9.267
    3        0.472   0.424   8.377   9.274
    4        0.472   0.429   8.369   9.269
    5        0.472   0.429   8.369   9.269
    6        0.472   0.424   8.377   9.274
    7        0.472   0.424   8.371   9.267
    8        0.474   0.426   8.369   9.269
    9        0.310   0.291   4.961   5.562
   10        0.310   0.295   4.912   5.517
   11        0.342   0.349   4.942   5.634
   12        0.345   0.342   4.963   5.650
   13        0.337   0.337   4.979   5.654
   14        0.347   0.342   4.903   5.591
   15        1.243   1.739   0.303   3.285
   16        1.255   1.713   0.307   3.275
--------------------------------------------------
tot          8.269   8.813  97.244 114.326



 magnetization (x)

# of ion       s       p       d       tot
------------------------------------------
    1       -0.013  -0.007   0.433   0.413
    2       -0.013  -0.009   0.409   0.388
    3       -0.008  -0.009   0.414   0.397
    4       -0.011  -0.000   0.440   0.429
    5       -0.011  -0.000   0.440   0.429
    6       -0.008  -0.009   0.414   0.397
    7       -0.013  -0.009   0.409   0.388
    8       -0.013  -0.007   0.433   0.413
    9        0.028   0.031   3.607   3.666
   10        0.030   0.029   3.604   3.664
   11       -0.034  -0.054  -3.318  -3.406
   12        0.023   0.038   3.490   3.551
   13        0.025   0.013   3.373   3.411
   14        0.024   0.022   3.464   3.510
   15       -0.009  -0.020  -0.002  -0.031
   16        0.008  -0.144  -0.007  -0.142
--------------------------------------------------
tot          0.006  -0.135  17.605  17.475

    CHARGE:  cpu time    0.6853: real time    0.6863
    FORLOC:  cpu time    0.0072: real time    0.0073
    FORNL :  cpu time    5.0593: real time    5.0672
    STRESS:  cpu time   15.1480: real time   15.1705
    FORCOR:  cpu time    0.1002: real time    0.1003
    FORHAR:  cpu time    0.0162: real time    0.0162
    MIXING:  cpu time    0.0017: real time    0.0017
    OFIELD:  cpu time    0.0000: real time    0.0000

  FORCE on cell =-STRESS in cart. coord.  units (eV):
  Direction    XX          YY          ZZ          XY          YZ          ZX
  --------------------------------------------------------------------------------------
  Alpha Z   530.77617   530.77617   530.77617
  Ewald   -2972.36741 -2972.36741 -3335.90353    -0.00000    -0.00000    -0.00000
  Hartree  1091.74163  1091.74163   754.64314    -0.00000    -0.00000    -0.00000
  E(xc)    -670.63411  -670.63411  -671.11400    -0.00000    -0.00000    -0.00000
  Local    -474.26706  -474.26706   223.81731    -0.00000     0.00000     0.00000
  n-local  -149.27077  -145.60826  -146.92259    -0.15783    -0.95357     0.31355
  augment  1578.85958  1578.85958  1580.78821    -0.00000    -0.00000     0.00000
  Kinetic  1052.55985  1069.57966  1064.69623     0.55943    -0.25514     0.91284
  Fock        0.00000     0.00000     0.00000     0.00000     0.00000     0.00000
  -------------------------------------------------------------------------------------
  Total      -2.26095    -2.26095     0.78095     0.00000     0.00000     0.00000
  in kB     -17.08700   -17.08700     5.90202     0.00000     0.00000     0.00000
  external pressure =       -9.42 kB  Pullay stress =        0.00 kB


 VOLUME and BASIS-vectors are now :
 -----------------------------------------------------------------------------
  energy-cutoff  :      550.00
  volume of cell :      212.00
      direct lattice vectors                 reciprocal lattice vectors
     5.962732309  0.000000000  0.000000000     0.167708351  0.000000000  0.000000000
     0.000000000  5.962732309  0.000000000     0.000000000  0.167708351  0.000000000
     0.000000000  0.000000000  5.962732309     0.000000000  0.000000000  0.167708351

  length of vectors
     5.962732309  5.962732309  5.962732309     0.167708351  0.167708351  0.167708351


 FORCES acting on ions
    electron-ion (+dipol)            ewald-force                    non-local-force                 convergence-correction
 -----------------------------------------------------------------------------------------------
   0.368E+00 0.368E+00 0.177E+03   -.359E+00 -.359E+00 -.175E+03   -.277E-01 -.277E-01 -.262E+01   0.193E-01 0.193E-01 -.229E-01
   -.368E+00 0.368E+00 0.177E+03   0.359E+00 -.359E+00 -.175E+03   0.277E-01 -.277E-01 -.262E+01   -.193E-01 0.193E-01 -.229E-01
   0.368E+00 -.368E+00 0.177E+03   -.359E+00 0.359E+00 -.175E+03   -.277E-01 0.277E-01 -.262E+01   0.193E-01 -.193E-01 -.229E-01
   -.368E+00 -.368E+00 0.177E+03   0.359E+00 0.359E+00 -.175E+03   0.277E-01 0.277E-01 -.262E+01   -.193E-01 -.193E-01 -.229E-01
   0.368E+00 0.368E+00 -.177E+03   -.359E+00 -.359E+00 0.175E+03   -.277E-01 -.277E-01 0.262E+01   0.193E-01 0.193E-01 0.229E-01
   -.368E+00 0.368E+00 -.177E+03   0.359E+00 -.359E+00 0.175E+03   0.277E-01 -.277E-01 0.262E+01   -.193E-01 0.193E-01 0.229E-01
   0.368E+00 -.368E+00 -.177E+03   -.359E+00 0.359E+00 0.175E+03   -.277E-01 0.277E-01 0.262E+01   0.193E-01 -.193E-01 0.229E-01
   -.368E+00 -.368E+00 -.177E+03   0.359E+00 0.359E+00 0.175E+03   0.277E-01 0.277E-01 0.262E+01   -.193E-01 -.193E-01 0.229E-01
   0.182E-12 -.986E-14 -.602E-12   -.796E-13 -.758E-14 0.114E-13   0.000E+00 0.000E+00 0.000E+00   0.132E-11 -.355E-12 -.137E-12
   -.695E-13 0.180E-12 -.311E-13   0.682E-13 -.188E-13 -.282E-14   0.000E+00 0.000E+00 0.000E+00   -.666E-12 0.209E-12 -.801E-12
   -.924E-13 -.783E-13 0.206E-12   -.177E-13 -.612E-14 0.166E-14   0.000E+00 0.000E+00 0.000E+00   0.720E-12 0.336E-12 -.223E-12
   0.161E-12 -.692E-13 0.161E-11   -.203E-13 -.167E-13 -.127E-13   0.000E+00 0.000E+00 0.000E+00   -.731E-12 0.334E-12 -.232E-12
   0.151E-12 0.138E-12 0.953E-12   -.134E-12 -.115E-13 -.267E-13   0.000E+00 0.000E+00 0.000E+00   -.132E-11 -.338E-12 0.315E-12
   -.922E-13 0.159E-12 0.205E-12   0.282E-13 -.790E-14 0.584E-13   0.000E+00 0.000E+00 0.000E+00   0.133E-11 -.321E-12 0.334E-12
   -.291E-13 -.292E-13 -.401E-14   0.274E-13 -.155E-13 -.370E-14   0.000E+00 0.000E+00 0.000E+00   -.269E-12 -.565E-13 -.662E-13
   -.148E-13 -.507E-12 0.151E-13   -.689E-14 -.249E-13 0.141E-13   0.000E+00 0.000E+00 0.000E+00   0.760E-13 0.557E-13 -.202E-12
 -----------------------------------------------------------------------------------------------
   0.798E-11 0.120E-10 -.420E-10   -.138E-13 0.367E-13 0.680E-13   -.347E-17 0.208E-16 -.444E-15   0.196E-11 -.264E-11 0.216E-10


 POSITION                                       TOTAL-FORCE (eV/Angst)
 -----------------------------------------------------------------------------------
      1.49111      1.49111      1.60109        -0.000124     -0.000124     -0.000256
      4.47163      1.49111      1.60109         0.000124     -0.000124     -0.000256
      1.49111      4.47163      1.60109        -0.000124      0.000124     -0.000256
      4.47163      4.47163      1.60109         0.000124      0.000124     -0.000256
      1.49111      1.49111      4.36164        -0.000124     -0.000124      0.000256
      4.47163      1.49111      4.36164         0.000124     -0.000124      0.000256
      1.49111      4.47163      4.36164        -0.000124      0.000124      0.000256
      4.47163      4.47163      4.36164         0.000124      0.000124      0.000256
      2.98137     -0.00000      0.00000        -0.000000     -0.000000      0.000000
     -0.00000      2.98137      0.00000        -0.000000     -0.000000      0.000000
     -0.00000     -0.00000      2.98137        -0.000000     -0.000000      0.000000
      2.98137     -0.00000      2.98137        -0.000000     -0.000000      0.000000
      2.98137      2.98137      2.98137        -0.000000     -0.000000      0.000000
     -0.00000      2.98137      2.98137        -0.000000     -0.000000      0.000000
     -0.00000     -0.00000      0.00000        -0.000000     -0.000000      0.000000
      2.98137      2.98137      0.00000        -0.000000     -0.000000      0.000000
 -----------------------------------------------------------------------------------
    total drift:                                0.000000      0.000000     -0.000000


--------------------------------------------------------------------------------------------------------



  FREE ENERGIE OF THE ION-ELECTRON SYSTEM (eV)
  ---------------------------------------------------
  free  energy   TOTEN  =      -103.31714384 eV

  energy  without entropy=     -103.31512403  energy(sigma->0) =     -103.31613394

 d Force = 0.5298772E-04[-0.154E-05, 0.108E-03]  d Energy = 0.7612816E-04-0.231E-04
 d Force = 0.6727891E-01[ 0.627E-01, 0.719E-01]  d Ewald  = 0.6727889E-01 0.256E-07


--------------------------------------------------------------------------------------------------------


    POTLOK:  cpu time    0.1357: real time    0.1360


--------------------------------------------------------------------------------------------------------




--------------------------------------------------------------------------------------------------------


  
 reached required accuracy - stopping structural energy minimisation
     LOOP+:  cpu time   90.8927: real time   91.0525
    4ORBIT:  cpu time    0.0000: real time    0.0000



 total charge     

# of ion       s       p       d       tot
------------------------------------------
    1        0.474   0.426   8.369   9.269
    2        0.472   0.424   8.371   9.267
    3        0.472   0.424   8.377   9.274
    4        0.472   0.429   8.369   9.269
    5        0.472   0.429   8.369   9.269
    6        0.472   0.424   8.377   9.274
    7        0.472   0.424   8.371   9.267
    8        0.474   0.426   8.369   9.269
    9        0.310   0.291   4.961   5.562
   10        0.310   0.295   4.912   5.517
   11        0.342   0.349   4.942   5.634
   12        0.345   0.342   4.963   5.650
   13        0.337   0.337   4.979   5.654
   14        0.347   0.342   4.903   5.591
   15        1.243   1.739   0.303   3.285
   16        1.255   1.713   0.307   3.275
--------------------------------------------------
tot          8.269   8.813  97.244 114.326



 magnetization (x)

# of ion       s       p       d       tot
------------------------------------------
    1       -0.013  -0.007   0.433   0.413
    2       -0.013  -0.009   0.409   0.388
    3       -0.008  -0.009   0.414   0.397
    4       -0.011  -0.000   0.440   0.429
    5       -0.011  -0.000   0.440   0.429
    6       -0.008  -0.009   0.414   0.397
    7       -0.013  -0.009   0.409   0.388
    8       -0.013  -0.007   0.433   0.413
    9        0.028   0.031   3.607   3.666
   10        0.030   0.029   3.604   3.664
   11       -0.034  -0.054  -3.318  -3.406
   12        0.023   0.038   3.490   3.551
   13        0.025   0.013   3.373   3.411
   14        0.024   0.022   3.464   3.510
   15       -0.009  -0.020  -0.002  -0.031
   16        0.008  -0.144  -0.007  -0.142
--------------------------------------------------
tot          0.006  -0.135  17.605  17.475


 total amount of memory used by VASP MPI-rank0   103612. kBytes
=======================================================================

   base      :      30000. kBytes
   nonlr-proj:       6783. kBytes
   fftplans  :       1269. kBytes
   grid      :       6573. kBytes
   one-center:        497. kBytes
   wavefun   :      58490. kBytes

  
  
 General timing and accounting informations for this job:
 ========================================================
  
                  Total CPU time used (sec):      557.376
                            User time (sec):      529.070
                          System time (sec):       28.306
                         Elapsed time (sec):      559.732
  
                   Maximum memory used (kb):      139380.
                   Average memory used (kb):           0.
  
                          Minor page faults:     10842388
                          Major page faults:           19
                 Voluntary context switches:         1936
