 vasp.5.4.4.18Apr17-6-g9f103f2a35 (build May 21 2018 20:56:50) complex           
 executed on             LinuxGNU date 2021.10.15  15:48:33
 running on   12 total cores
 distrk:  each k-point on   12 cores,    1 groups
 distr:  one band on NCORES_PER_BAND=   1 cores,   12 groups


--------------------------------------------------------------------------------------------------------


 INCAR:
 POTCAR:    PAW_PBE Ni 02Aug2007                  
 POTCAR:    PAW_PBE Mn 06Sep2000                  
 POTCAR:    PAW_PBE In 08Apr2002                  

 ----------------------------------------------------------------------------- 
|                                                                             |
|           W    W    AA    RRRRR   N    N  II  N    N   GGGG   !!!           |
|           W    W   A  A   R    R  NN   N  II  NN   N  G    G  !!!           |
|           W    W  A    A  R    R  N N  N  II  N N  N  G       !!!           |
|           W WW W  AAAAAA  RRRRR   N  N N  II  N  N N  G  GGG   !            |
|           WW  WW  A    A  R   R   N   NN  II  N   NN  G    G                |
|           W    W  A    A  R    R  N    N  II  N    N   GGGG   !!!           |
|                                                                             |
|      For optimal performance we recommend to set                            |
|        NCORE= 4 - approx SQRT( number of cores)                             |
|      NCORE specifies how many cores store one orbital (NPAR=cpu/NCORE).     |
|      This setting can  greatly improve the performance of VASP for DFT.     |
|      The default,   NCORE=1            might be grossly inefficient         |
|      on modern multi-core architectures or massively parallel machines.     |
|      Do your own testing !!!!                                               |
|      Unfortunately you need to use the default for GW and RPA calculations. |
|      (for HF NCORE is supported but not extensively tested yet)             |
|                                                                             |
 ----------------------------------------------------------------------------- 

 POTCAR:    PAW_PBE Ni 02Aug2007                  
   VRHFIN =Ni:                                                                  
   LEXCH  = PE                                                                  
   EATOM  =  1077.6739 eV,   79.2068 Ry                                         
                                                                                
   TITEL  = PAW_PBE Ni 02Aug2007                                                
   LULTRA =        F    use ultrasoft PP ?                                      
   IUNSCR =        1    unscreen: 0-lin 1-nonlin 2-no                           
   RPACOR =    2.000    partial core radius                                     
   POMASS =   58.690; ZVAL   =   10.000    mass and valenz                      
   RCORE  =    2.300    outmost cutoff radius                                   
   RWIGS  =    2.430; RWIGS  =    1.286    wigner-seitz radius (au A)           
   ENMAX  =  269.532; ENMIN  =  202.149 eV                                      
   RCLOC  =    1.201    cutoff for local pot                                    
   LCOR   =        T    correct aug charges                                     
   LPAW   =        T    paw PP                                                  
   EAUG   =  544.565                                                            
   DEXC   =    0.000                                                            
   RMAX   =    2.357    core radius for proj-oper                               
   RAUG   =    1.300    factor for augmentation sphere                          
   RDEP   =    2.390    radius for radial grids                                 
   RDEPT  =    1.838    core radius for aug-charge                              
                                                                                
   Atomic configuration                                                         
    9 entries                                                                   
     n  l   j            E        occ.                                          
     1  0  0.50     -8206.4253   2.0000                                         
     2  0  0.50      -976.1748   2.0000                                         
     2  1  1.50      -839.0571   6.0000                                         
     3  0  0.50      -105.9991   2.0000                                         
     3  1  1.50       -66.4603   6.0000                                         
     3  2  2.50        -4.6458   9.0000                                         
     4  0  0.50        -4.4926   1.0000                                         
     4  1  1.50        -4.0817   0.0000                                         
     4  3  2.50        -1.3606   0.0000                                         
   Description                                                                  
     l       E           TYP  RCUT    TYP  RCUT                                 
     2     -4.6457903     23  2.300                                             
     2     -6.0063729     23  2.300                                             
     0     -4.4925590     23  2.300                                             
     0      5.0102601     23  2.300                                             
     1     -2.7211652     23  2.300                                             
     1     16.5183231     23  2.300                                             
  local pseudopotential read in
  partial core-charges read in
  partial kinetic energy density read in
  atomic valenz-charges read in
  non local Contribution for L=           2  read in
    real space projection operators read in
  non local Contribution for L=           2  read in
    real space projection operators read in
  non local Contribution for L=           0  read in
    real space projection operators read in
  non local Contribution for L=           0  read in
    real space projection operators read in
  non local Contribution for L=           1  read in
    real space projection operators read in
  non local Contribution for L=           1  read in
    real space projection operators read in
    PAW grid and wavefunctions read in

   number of l-projection  operators is LMAX  =           6
   number of lm-projection operators is LMMAX =          18

 POTCAR:    PAW_PBE Mn 06Sep2000                  
   VRHFIN =Mn: d6 s1                                                            
   LEXCH  = PE                                                                  
   EATOM  =   416.7541 eV,   30.6306 Ry                                         
                                                                                
   TITEL  = PAW_PBE Mn 06Sep2000                                                
   LULTRA =        F    use ultrasoft PP ?                                      
   IUNSCR =        1    unscreen: 0-lin 1-nonlin 2-no                           
   RPACOR =    2.000    partial core radius                                     
   POMASS =   54.938; ZVAL   =    7.000    mass and valenz                      
   RCORE  =    2.300    outmost cutoff radius                                   
   RWIGS  =    2.500; RWIGS  =    1.323    wigner-seitz radius (au A)           
   ENMAX  =  269.864; ENMIN  =  202.398 eV                                      
   RCLOC  =    1.725    cutoff for local pot                                    
   LCOR   =        T    correct aug charges                                     
   LPAW   =        T    paw PP                                                  
   EAUG   =  500.711                                                            
   DEXC   =    0.000                                                            
   RMAX   =    2.343    core radius for proj-oper                               
   RAUG   =    1.300    factor for augmentation sphere                          
   RDEP   =    2.338    radius for radial grids                                 
   RDEPT  =    1.911    core radius for aug-charge                              
                                                                                
   Atomic configuration                                                         
    9 entries                                                                   
     n  l   j            E        occ.                                          
     1  0  0.50     -6424.8288   2.0000                                         
     2  0  0.50      -739.1154   2.0000                                         
     2  1  1.50      -625.3949   6.0000                                         
     3  0  0.50       -81.6100   2.0000                                         
     3  1  1.50       -50.4667   6.0000                                         
     3  2  2.50        -3.3745   6.0000                                         
     4  0  0.50        -4.1331   1.0000                                         
     4  1  0.50        -4.0817   0.0000                                         
     4  3  2.50        -1.3606   0.0000                                         
   Description                                                                  
     l       E           TYP  RCUT    TYP  RCUT                                 
     2     -3.3744664     23  2.300                                             
     2     -4.7350490     23  2.300                                             
     0     -4.1331408     23  2.300                                             
     0      7.6656614     23  2.300                                             
     1     -2.7211652     23  2.300                                             
     1     20.4087390     23  2.300                                             
  local pseudopotential read in
  partial core-charges read in
  partial kinetic energy density read in
  atomic valenz-charges read in
  non local Contribution for L=           2  read in
    real space projection operators read in
  non local Contribution for L=           2  read in
    real space projection operators read in
  non local Contribution for L=           0  read in
    real space projection operators read in
  non local Contribution for L=           0  read in
    real space projection operators read in
  non local Contribution for L=           1  read in
    real space projection operators read in
  non local Contribution for L=           1  read in
    real space projection operators read in
    PAW grid and wavefunctions read in

   number of l-projection  operators is LMAX  =           6
   number of lm-projection operators is LMMAX =          18

 POTCAR:    PAW_PBE In 08Apr2002                  
   VRHFIN =In: s2p1                                                             
   LEXCH  = PE                                                                  
   EATOM  =    53.7908 eV,    3.9535 Ry                                         
                                                                                
   TITEL  = PAW_PBE In 08Apr2002                                                
   LULTRA =        F    use ultrasoft PP ?                                      
   IUNSCR =        1    unscreen: 0-lin 1-nonlin 2-no                           
   RPACOR =    2.400    partial core radius                                     
   POMASS =  114.820; ZVAL   =    3.000    mass and valenz                      
   RCORE  =    3.100    outmost cutoff radius                                   
   RWIGS  =    3.170; RWIGS  =    1.677    wigner-seitz radius (au A)           
   ENMAX  =   95.934; ENMIN  =   71.951 eV                                      
   ICORE  =        3    local potential                                         
   LCOR   =        T    correct aug charges                                     
   LPAW   =        T    paw PP                                                  
   EAUG   =  237.125                                                            
   DEXC   =    0.000                                                            
   RMAX   =    3.168    core radius for proj-oper                               
   RAUG   =    1.300    factor for augmentation sphere                          
   RDEP   =    3.187    radius for radial grids                                 
   RDEPT  =    2.711    core radius for aug-charge                              
                                                                                
   Atomic configuration                                                         
   13 entries                                                                   
     n  l   j            E        occ.                                          
     1  0  0.50    -27747.9169   2.0000                                         
     2  0  0.50     -4154.4438   2.0000                                         
     2  1  1.50     -3728.4305   6.0000                                         
     3  0  0.50      -788.3680   2.0000                                         
     3  1  1.50      -648.9215   6.0000                                         
     3  2  2.50      -432.5893  10.0000                                         
     4  0  0.50      -119.6363   2.0000                                         
     4  1  1.50       -78.1086   6.0000                                         
     4  2  2.50       -18.6227  10.0000                                         
     5  0  0.50        -8.2107   2.0000                                         
     5  1  0.50        -2.5185   1.0000                                         
     5  2  2.50        -1.3606   0.0000                                         
     4  3  2.50        -2.7212   0.0000                                         
   Description                                                                  
     l       E           TYP  RCUT    TYP  RCUT                                 
     0     -8.2107306     23  3.100                                             
     0     -6.1485975     23  3.100                                             
     1     -2.5184867     23  3.100                                             
     1      3.2427302     23  3.100                                             
     2     -1.3605826     23  3.100                                             
     3     -1.3605826     23  3.100                                             
  local pseudopotential read in
  partial core-charges read in
  partial kinetic energy density read in
  atomic valenz-charges read in
  non local Contribution for L=           0  read in
    real space projection operators read in
  non local Contribution for L=           0  read in
    real space projection operators read in
  non local Contribution for L=           1  read in
    real space projection operators read in
  non local Contribution for L=           1  read in
    real space projection operators read in
  non local Contribution for L=           2  read in
    real space projection operators read in
    PAW grid and wavefunctions read in

   number of l-projection  operators is LMAX  =           5
   number of lm-projection operators is LMMAX =          13

 Optimization of the real space projectors (new method)

 maximal supplied QI-value         = 16.25
 optimisation between [QCUT,QGAM] = [ 11.86, 23.89] = [ 39.41,159.82] Ry 
 Optimized for a Real-space Cutoff    1.33 Angstroem

   l    n(q)    QCUT    max X(q) W(low)/X(q) W(high)/X(q)  e(spline) 
   2      9    11.864    60.317    0.21E-03    0.51E-03    0.25E-06
   2      9    11.864    55.921    0.21E-03    0.51E-03    0.26E-06
   0      9    11.864    51.690    0.22E-03    0.30E-04    0.17E-06
   0      9    11.864    30.015    0.20E-03    0.28E-04    0.15E-06
   1      9    11.864    18.849    0.76E-04    0.33E-03    0.17E-06
   1      9    11.864    14.624    0.60E-04    0.28E-03    0.15E-06
 Optimization of the real space projectors (new method)

 maximal supplied QI-value         = 16.25
 optimisation between [QCUT,QGAM] = [ 11.86, 23.89] = [ 39.41,159.82] Ry 
 Optimized for a Real-space Cutoff    1.36 Angstroem

   l    n(q)    QCUT    max X(q) W(low)/X(q) W(high)/X(q)  e(spline) 
   2      9    11.864   110.144    0.49E-03    0.50E-03    0.21E-06
   2      9    11.864   103.200    0.49E-03    0.51E-03    0.22E-06
   0     10    11.864    68.437    0.12E-03    0.41E-04    0.21E-06
   0     10    11.864    33.971    0.11E-03    0.36E-04    0.19E-06
   1      9    11.864    17.065    0.24E-03    0.26E-03    0.93E-07
   1      9    11.864    12.540    0.19E-03    0.20E-03    0.80E-07
 Optimization of the real space projectors (new method)

 maximal supplied QI-value         = 12.09
 optimisation between [QCUT,QGAM] = [ 11.97, 23.95] = [ 40.14,160.58] Ry 
 Optimized for a Real-space Cutoff    1.63 Angstroem

   l    n(q)    QCUT    max X(q) W(low)/X(q) W(high)/X(q)  e(spline) 
   0     12    11.973   106.980    0.33E-03    0.16E-03    0.25E-05
   0     12    11.973    81.086    0.37E-03    0.18E-03    0.28E-05
   1     11    11.973    53.097    0.22E-03    0.42E-03    0.40E-05
   1     11    11.973    32.621    0.20E-03    0.40E-03    0.37E-05
   2     11    11.973     8.820    0.30E-03    0.17E-03    0.41E-06
  PAW_PBE Ni 02Aug2007                  :
 energy of atom  1       EATOM=-1077.6739
 kinetic energy error for atom=    0.0027 (will be added to EATOM!!)
  PAW_PBE Mn 06Sep2000                  :
 energy of atom  2       EATOM= -416.7541
 kinetic energy error for atom=    0.0022 (will be added to EATOM!!)
  PAW_PBE In 08Apr2002                  :
 energy of atom  3       EATOM=  -53.7908
 kinetic energy error for atom=    0.0000 (will be added to EATOM!!)


 POSCAR: Ni2MnIn                                 
  positions in direct lattice
  velocities in cartesian coordinates
 exchange correlation table for  LEXCH =        8
   RHO(1)=    0.500       N(1)  =     2000
   RHO(2)=  100.500       N(2)  =     4000



--------------------------------------------------------------------------------------------------------


 ion  position               nearest neighbor table
   1  0.253  0.253  0.271-  13 2.49  12 2.51  14 2.51  11 2.53  16 2.63  10 2.65   9 2.65  15 2.67
                             5 2.73   3 2.95   2 2.95   3 3.01   2 3.01
   2  0.747  0.253  0.271-  13 2.49  12 2.51  14 2.51  11 2.53  16 2.63  10 2.65   9 2.65  15 2.67
                             6 2.73   4 2.95   1 2.95   1 3.01   4 3.01
   3  0.253  0.747  0.271-  13 2.49  12 2.51  14 2.51  11 2.53  16 2.63  10 2.65   9 2.65  15 2.67
                             7 2.73   4 2.95   1 2.95   1 3.01   4 3.01
   4  0.747  0.747  0.271-  13 2.49  12 2.51  14 2.51  11 2.53  16 2.63  10 2.65   9 2.65  15 2.67
                             8 2.73   3 2.95   2 2.95   2 3.01   3 3.01
   5  0.253  0.253  0.729-  13 2.49  12 2.51  14 2.51  11 2.53  16 2.63  10 2.65   9 2.65  15 2.67
                             1 2.73   6 2.95   7 2.95   7 3.01   6 3.01
   6  0.747  0.253  0.729-  13 2.49  12 2.51  14 2.51  11 2.53  16 2.63  10 2.65   9 2.65  15 2.67
                             2 2.73   5 2.95   8 2.95   5 3.01   8 3.01
   7  0.253  0.747  0.729-  13 2.49  12 2.51  14 2.51  11 2.53  16 2.63  10 2.65   9 2.65  15 2.67
                             3 2.73   5 2.95   8 2.95   5 3.01   8 3.01
   8  0.747  0.747  0.729-  13 2.49  12 2.51  14 2.51  11 2.53  16 2.63  10 2.65   9 2.65  15 2.67
                             4 2.73   6 2.95   7 2.95   6 3.01   7 3.01
   9  0.500  0.000  0.000-   1 2.65   2 2.65   3 2.65   4 2.65   5 2.65   6 2.65   7 2.65   8 2.65
                            12 2.98  15 2.98  16 2.98  12 2.98  16 2.98  15 2.98
  10  0.000  0.500  0.000-   1 2.65   2 2.65   3 2.65   4 2.65   5 2.65   6 2.65   7 2.65   8 2.65
                            14 2.98  15 2.98  16 2.98  14 2.98  15 2.98  16 2.98
  11  0.000  0.000  0.500-   1 2.53   2 2.53   3 2.53   4 2.53   5 2.53   6 2.53   7 2.53   8 2.53
                            12 2.98  14 2.98  15 2.98  15 2.98  14 2.98  12 2.98
  12  0.500  0.000  0.500-   1 2.51   2 2.51   3 2.51   4 2.51   5 2.51   6 2.51   7 2.51   8 2.51
                             9 2.98  11 2.98  13 2.98   9 2.98  13 2.98  11 2.98
  13  0.500  0.500  0.500-   1 2.49   2 2.49   3 2.49   4 2.49   5 2.49   6 2.49   7 2.49   8 2.49
                            12 2.98  14 2.98  16 2.98  16 2.98  12 2.98  14 2.98
  14  0.000  0.500  0.500-   1 2.51   2 2.51   3 2.51   4 2.51   5 2.51   6 2.51   7 2.51   8 2.51
                            10 2.98  11 2.98  13 2.98  10 2.98  11 2.98  13 2.98
  15  0.000  0.000  0.000-   1 2.67   2 2.67   3 2.67   4 2.67   5 2.67   6 2.67   7 2.67   8 2.67
                             9 2.98  10 2.98  11 2.98  11 2.98  10 2.98   9 2.98
  16  0.500  0.500  0.000-   1 2.63   2 2.63   3 2.63   4 2.63   5 2.63   6 2.63   7 2.63   8 2.63
                             9 2.98  10 2.98  13 2.98  13 2.98   9 2.98  10 2.98

  LATTYP: Found a simple cubic cell.
 ALAT       =     5.9530670903
  
  Lattice vectors:
  
 A1 = (   5.9530670903,   0.0000000000,   0.0000000000)
 A2 = (   0.0000000000,   5.9530670903,   0.0000000000)
 A3 = (   0.0000000000,   0.0000000000,   5.9530670903)


Analysis of symmetry for initial positions (statically):
=====================================================================
 Subroutine PRICEL returns:
 Original cell was already a primitive cell.
 

 Routine SETGRP: Setting up the symmetry group for a 
 simple cubic supercell.


 Subroutine GETGRP returns: Found 16 space group operations
 (whereof 16 operations were pure point group operations)
 out of a pool of 48 trial point group operations.


The static configuration has the point symmetry D_4h.


Analysis of symmetry for dynamics (positions and initial velocities):
=====================================================================
 Subroutine PRICEL returns:
 Original cell was already a primitive cell.
 

 Routine SETGRP: Setting up the symmetry group for a 
 simple cubic supercell.


 Subroutine GETGRP returns: Found 16 space group operations
 (whereof 16 operations were pure point group operations)
 out of a pool of 48 trial point group operations.


The dynamic configuration has the point symmetry D_4h.


Analysis of structural, dynamic, and magnetic symmetry:
=====================================================================
 Subroutine PRICEL returns:
 Original cell was already a primitive cell.
 

 Routine SETGRP: Setting up the symmetry group for a 
 simple cubic supercell.


 Subroutine GETGRP returns: Found 16 space group operations
 (whereof 16 operations were pure point group operations)
 out of a pool of 48 trial point group operations.


The magnetic configuration has the point symmetry D_4h.


 Subroutine INISYM returns: Found 16 space group operations
 (whereof 16 operations are pure point group operations),
 and found     1 'primitive' translations



 KPOINTS: k-points                                

Automatic generation of k-mesh.
Space group operators:
 irot       det(A)        alpha          n_x          n_y          n_z        tau_x        tau_y        tau_z
    1     1.000000     0.000000     1.000000     0.000000     0.000000     0.000000     0.000000     0.000000
    2    -1.000000     0.000000     1.000000     0.000000     0.000000     0.000000     0.000000     0.000000
    3     1.000000    90.000000     0.000000     0.000000    -1.000000     0.000000     0.000000     0.000000
    4    -1.000000    90.000000     0.000000     0.000000    -1.000000     0.000000     0.000000     0.000000
    5     1.000000   180.000000     0.000000     0.000000     1.000000     0.000000     0.000000     0.000000
    6    -1.000000   180.000000     0.000000     0.000000     1.000000     0.000000     0.000000     0.000000
    7     1.000000    90.000000     0.000000     0.000000     1.000000     0.000000     0.000000     0.000000
    8    -1.000000    90.000000     0.000000     0.000000     1.000000     0.000000     0.000000     0.000000
    9     1.000000   180.000000     1.000000     0.000000     0.000000     0.000000     0.000000     0.000000
   10    -1.000000   180.000000     1.000000     0.000000     0.000000     0.000000     0.000000     0.000000
   11     1.000000   180.000000     0.707107     0.707107     0.000000     0.000000     0.000000     0.000000
   12    -1.000000   180.000000     0.707107     0.707107     0.000000     0.000000     0.000000     0.000000
   13     1.000000   180.000000     0.000000     1.000000     0.000000     0.000000     0.000000     0.000000
   14    -1.000000   180.000000     0.000000     1.000000     0.000000     0.000000     0.000000     0.000000
   15     1.000000   180.000000     0.707107    -0.707107     0.000000     0.000000     0.000000     0.000000
   16    -1.000000   180.000000     0.707107    -0.707107     0.000000     0.000000     0.000000     0.000000
 
 Subroutine IBZKPT returns following result:
 ===========================================
 
 Found     40 irreducible k-points:
 
 Following reciprocal coordinates:
            Coordinates               Weight
  0.000000  0.000000  0.000000      1.000000
  0.142857  0.000000  0.000000      4.000000
  0.285714  0.000000  0.000000      4.000000
  0.428571  0.000000  0.000000      4.000000
  0.142857  0.142857  0.000000      4.000000
  0.285714  0.142857  0.000000      8.000000
  0.428571  0.142857  0.000000      8.000000
  0.285714  0.285714  0.000000      4.000000
  0.428571  0.285714  0.000000      8.000000
  0.428571  0.428571  0.000000      4.000000
  0.000000  0.000000  0.142857      2.000000
  0.142857  0.000000  0.142857      8.000000
  0.285714  0.000000  0.142857      8.000000
  0.428571  0.000000  0.142857      8.000000
  0.142857  0.142857  0.142857      8.000000
  0.285714  0.142857  0.142857     16.000000
  0.428571  0.142857  0.142857     16.000000
  0.285714  0.285714  0.142857      8.000000
  0.428571  0.285714  0.142857     16.000000
  0.428571  0.428571  0.142857      8.000000
  0.000000  0.000000  0.285714      2.000000
  0.142857  0.000000  0.285714      8.000000
  0.285714  0.000000  0.285714      8.000000
  0.428571  0.000000  0.285714      8.000000
  0.142857  0.142857  0.285714      8.000000
  0.285714  0.142857  0.285714     16.000000
  0.428571  0.142857  0.285714     16.000000
  0.285714  0.285714  0.285714      8.000000
  0.428571  0.285714  0.285714     16.000000
  0.428571  0.428571  0.285714      8.000000
  0.000000  0.000000  0.428571      2.000000
  0.142857  0.000000  0.428571      8.000000
  0.285714  0.000000  0.428571      8.000000
  0.428571  0.000000  0.428571      8.000000
  0.142857  0.142857  0.428571      8.000000
  0.285714  0.142857  0.428571     16.000000
  0.428571  0.142857  0.428571     16.000000
  0.285714  0.285714  0.428571      8.000000
  0.428571  0.285714  0.428571     16.000000
  0.428571  0.428571  0.428571      8.000000
 
 Following cartesian coordinates:
            Coordinates               Weight
  0.000000  0.000000  0.000000      1.000000
  0.138224  0.000000  0.000000      4.000000
  0.276448  0.000000  0.000000      4.000000
  0.414672  0.000000  0.000000      4.000000
  0.138224  0.138224  0.000000      4.000000
  0.276448  0.138224  0.000000      8.000000
  0.414672  0.138224  0.000000      8.000000
  0.276448  0.276448  0.000000      4.000000
  0.414672  0.276448  0.000000      8.000000
  0.414672  0.414672  0.000000      4.000000
  0.000000  0.000000  0.138224      2.000000
  0.138224  0.000000  0.138224      8.000000
  0.276448  0.000000  0.138224      8.000000
  0.414672  0.000000  0.138224      8.000000
  0.138224  0.138224  0.138224      8.000000
  0.276448  0.138224  0.138224     16.000000
  0.414672  0.138224  0.138224     16.000000
  0.276448  0.276448  0.138224      8.000000
  0.414672  0.276448  0.138224     16.000000
  0.414672  0.414672  0.138224      8.000000
  0.000000  0.000000  0.276448      2.000000
  0.138224  0.000000  0.276448      8.000000
  0.276448  0.000000  0.276448      8.000000
  0.414672  0.000000  0.276448      8.000000
  0.138224  0.138224  0.276448      8.000000
  0.276448  0.138224  0.276448     16.000000
  0.414672  0.138224  0.276448     16.000000
  0.276448  0.276448  0.276448      8.000000
  0.414672  0.276448  0.276448     16.000000
  0.414672  0.414672  0.276448      8.000000
  0.000000  0.000000  0.414672      2.000000
  0.138224  0.000000  0.414672      8.000000
  0.276448  0.000000  0.414672      8.000000
  0.414672  0.000000  0.414672      8.000000
  0.138224  0.138224  0.414672      8.000000
  0.276448  0.138224  0.414672     16.000000
  0.414672  0.138224  0.414672     16.000000
  0.276448  0.276448  0.414672      8.000000
  0.414672  0.276448  0.414672     16.000000
  0.414672  0.414672  0.414672      8.000000
 


--------------------------------------------------------------------------------------------------------




 Dimension of arrays:
   k-points           NKPTS =     40   k-points in BZ     NKDIM =     40   number of bands    NBANDS=     84
   number of dos      NEDOS =    301   number of ions     NIONS =     16
   non local maximal  LDIM  =      6   non local SUM 2l+1 LMDIM =     18
   total plane-waves  NPLWV =  46656
   max r-space proj   IRMAX =   4059   max aug-charges    IRDMAX=  25145
   dimension x,y,z NGX =    36 NGY =   36 NGZ =   36
   dimension x,y,z NGXF=    72 NGYF=   72 NGZF=   72
   support grid    NGXF=    72 NGYF=   72 NGZF=   72
   ions per type =               8   6   2
   NGX,Y,Z   is equivalent  to a cutoff of  10.05, 10.05, 10.05 a.u.
   NGXF,Y,Z  is equivalent  to a cutoff of  20.11, 20.11, 20.11 a.u.

 SYSTEM =  Testrun for NiMnIn                      
 POSCAR =  Ni2MnIn                                 

 Startparameter for this run:
   NWRITE =      2    write-flag & timer
   PREC   = normal    normal or accurate (medium, high low for compatibility)
   ISTART =      0    job   : 0-new  1-cont  2-samecut
   ICHARG =      2    charge: 1-file 2-atom 10-const
   ISPIN  =      2    spin polarized calculation?
   LNONCOLLINEAR =      F non collinear calculations
   LSORBIT =      F    spin-orbit coupling
   INIWAV =      1    electr: 0-lowe 1-rand  2-diag
   LASPH  =      F    aspherical Exc in radial PAW
   METAGGA=      F    non-selfconsistent MetaGGA calc.

 Electronic Relaxation 1
   ENCUT  =  550.0 eV  40.42 Ry    6.36 a.u.  11.38 11.38 11.38*2*pi/ulx,y,z
   ENINI  =  550.0     initial cutoff
   ENAUG  =  544.6 eV  augmentation charge cutoff
   NELM   =     60;   NELMIN=  2; NELMDL= -5     # of ELM steps 
   EDIFF  = 0.1E-04   stopping-criterion for ELM
   LREAL  =      T    real-space projection
   NLSPLINE    = F    spline interpolate recip. space projectors
   LCOMPAT=      F    compatible to vasp.4.4
   GGA_COMPAT  = T    GGA compatible to vasp.4.4-vasp.4.6
   LMAXPAW     = -100 max onsite density
   LMAXMIX     =    2 max onsite mixed and CHGCAR
   VOSKOWN=      0    Vosko Wilk Nusair interpolation
   ROPT   =   -0.00050  -0.00050  -0.00050
 Ionic relaxation
   EDIFFG = -.1E-01   stopping-criterion for IOM
   NSW    =   1000    number of steps for IOM
   NBLOCK =      1;   KBLOCK =   1000    inner block; outer block 
   IBRION =      2    ionic relax: 0-MD 1-quasi-New 2-CG
   NFREE  =      1    steps in history (QN), initial steepest desc. (CG)
   ISIF   =      2    stress and relaxation
   IWAVPR =     11    prediction:  0-non 1-charg 2-wave 3-comb
   ISYM   =      2    0-nonsym 1-usesym 2-fastsym
   LCORR  =      T    Harris-Foulkes like correction to forces

   POTIM  = 0.5000    time-step for ionic-motion
   TEIN   =    0.0    initial temperature
   TEBEG  =    0.0;   TEEND  =   0.0 temperature during run
   SMASS  =  -3.00    Nose mass-parameter (am)
   estimated Nose-frequenzy (Omega)   =  0.10E-29 period in steps =****** mass=  -0.810E-27a.u.
   SCALEE = 1.0000    scale energy and forces
   NPACO  =    256;   APACO  = 16.0  distance and # of slots for P.C.
   PSTRESS=    0.0 pullay stress

  Mass of Ions in am
   POMASS =  58.69 54.94114.82
  Ionic Valenz
   ZVAL   =  10.00  7.00  3.00
  Atomic Wigner-Seitz radii
   RWIGS  =  -1.00 -1.00 -1.00
  virtual crystal weights 
   VCA    =   1.00  1.00  1.00
   NELECT =     128.0000    total number of electrons
   NUPDOWN=      -1.0000    fix difference up-down

 DOS related values:
   EMIN   =  10.00;   EMAX   =-10.00  energy-range for DOS
   EFERMI =   0.00
   ISMEAR =     0;   SIGMA  =   0.02  broadening in eV -4-tet -1-fermi 0-gaus

 Electronic relaxation 2 (details)
   IALGO  =     68    algorithm
   LDIAG  =      T    sub-space diagonalisation (order eigenvalues)
   LSUBROT=      F    optimize rotation matrix (better conditioning)
   TURBO    =      0    0=normal 1=particle mesh
   IRESTART =      0    0=no restart 2=restart with 2 vectors
   NREBOOT  =      0    no. of reboots
   NMIN     =      0    reboot dimension
   EREF     =   0.00    reference energy to select bands
   IMIX   =      4    mixing-type and parameters
     AMIX     =   0.40;   BMIX     =  1.00
     AMIX_MAG =   1.60;   BMIX_MAG =  1.00
     AMIN     =   0.10
     WC   =   100.;   INIMIX=   1;  MIXPRE=   1;  MAXMIX= -45

 Intra band minimization:
   WEIMIN = 0.0010     energy-eigenvalue tresh-hold
   EBREAK =  0.30E-07  absolut break condition
   DEPER  =   0.30     relativ break condition  

   TIME   =   0.40     timestep for ELM

  volume/ion in A,a.u.               =      13.19        88.98
  Fermi-wavevector in a.u.,A,eV,Ry     =   1.385917  2.619004 26.133626  1.920767
  Thomas-Fermi vector in A             =   2.510282

 Write flags
   LWAVE        =      F    write WAVECAR
   LDOWNSAMPLE  =      F    k-point downsampling of WAVECAR
   LCHARG       =      T    write CHGCAR
   LVTOT        =      F    write LOCPOT, total local potential
   LVHAR        =      F    write LOCPOT, Hartree potential only
   LELF         =      F    write electronic localiz. function (ELF)
   LORBIT       =     11    0 simple, 1 ext, 2 COOP (PROOUT), +10 PAW based schemes


 Dipole corrections
   LMONO  =      F    monopole corrections only (constant potential shift)
   LDIPOL =      F    correct potential (dipole corrections)
   IDIPOL =      0    1-x, 2-y, 3-z, 4-all directions 
   EPSILON=  1.0000000 bulk dielectric constant

 Exchange correlation treatment:
   GGA     =    --    GGA type
   LEXCH   =     8    internal setting for exchange type
   VOSKOWN=      0    Vosko Wilk Nusair interpolation
   LHFCALC =     F    Hartree Fock is set to
   LHFONE  =     F    Hartree Fock one center treatment
   AEXX    =    0.0000 exact exchange contribution

 Linear response parameters
   LEPSILON=     F    determine dielectric tensor
   LRPA    =     F    only Hartree local field effects (RPA)
   LNABLA  =     F    use nabla operator in PAW spheres
   LVEL    =     F    velocity operator in full k-point grid
   LINTERFAST=   F  fast interpolation
   KINTER  =     0    interpolate to denser k-point grid
   CSHIFT  =0.1000    complex shift for real part using Kramers Kronig
   OMEGAMAX=  -1.0    maximum frequency
   DEG_THRESHOLD= 0.2000000E-02 threshold for treating states as degnerate
   RTIME   =   -0.100 relaxation time in fs
  (WPLASMAI=    0.000 imaginary part of plasma frequency in eV, 0.658/RTIME)
   DFIELD  = 0.0000000 0.0000000 0.0000000 field for delta impulse in time

 Orbital magnetization related:
   ORBITALMAG=     F  switch on orbital magnetization
   LCHIMAG   =     F  perturbation theory with respect to B field
   DQ        =  0.001000  dq finite difference perturbation B field
   LLRAUG    =     F  two centre corrections for induced B field



--------------------------------------------------------------------------------------------------------


 conjugate gradient relaxation of ions
 charge density and potential will be updated during run
 spin polarized calculation
 RMM-DIIS sequential band-by-band and
  variant of blocked Davidson during initial phase
 perform sub-space diagonalisation
    before iterative eigenvector-optimisation
 modified Broyden-mixing scheme, WC =      100.0
 initial mixing is a Kerker type mixing with AMIX =  0.4000 and BMIX =      1.0000
 Hartree-type preconditioning will be used
 using additional bands           20
 real space projection scheme for non local part
 use partial core corrections
 calculate Harris-corrections to forces   (improved forces if not selfconsistent)
 use gradient corrections 
 use of overlap-Matrix (Vanderbilt PP)
 Gauss-broadening in eV      SIGMA  =   0.02


--------------------------------------------------------------------------------------------------------


  energy-cutoff  :      550.00
  volume of cell :      210.97
      direct lattice vectors                 reciprocal lattice vectors
     5.953067090  0.000000000  0.000000000     0.167980637  0.000000000  0.000000000
     0.000000000  5.953067090  0.000000000     0.000000000  0.167980637  0.000000000
     0.000000000  0.000000000  5.953067090     0.000000000  0.000000000  0.167980637

  length of vectors
     5.953067090  5.953067090  5.953067090     0.167980637  0.167980637  0.167980637



 k-points in units of 2pi/SCALE and weight: k-points                                
   0.00000000  0.00000000  0.00000000       0.003
   0.13822407  0.00000000  0.00000000       0.012
   0.27644813  0.00000000  0.00000000       0.012
   0.41467220  0.00000000  0.00000000       0.012
   0.13822407  0.13822407  0.00000000       0.012
   0.27644813  0.13822407  0.00000000       0.023
   0.41467220  0.13822407  0.00000000       0.023
   0.27644813  0.27644813  0.00000000       0.012
   0.41467220  0.27644813  0.00000000       0.023
   0.41467220  0.41467220  0.00000000       0.012
   0.00000000  0.00000000  0.13822407       0.006
   0.13822407  0.00000000  0.13822407       0.023
   0.27644813  0.00000000  0.13822407       0.023
   0.41467220  0.00000000  0.13822407       0.023
   0.13822407  0.13822407  0.13822407       0.023
   0.27644813  0.13822407  0.13822407       0.047
   0.41467220  0.13822407  0.13822407       0.047
   0.27644813  0.27644813  0.13822407       0.023
   0.41467220  0.27644813  0.13822407       0.047
   0.41467220  0.41467220  0.13822407       0.023
   0.00000000  0.00000000  0.27644813       0.006
   0.13822407  0.00000000  0.27644813       0.023
   0.27644813  0.00000000  0.27644813       0.023
   0.41467220  0.00000000  0.27644813       0.023
   0.13822407  0.13822407  0.27644813       0.023
   0.27644813  0.13822407  0.27644813       0.047
   0.41467220  0.13822407  0.27644813       0.047
   0.27644813  0.27644813  0.27644813       0.023
   0.41467220  0.27644813  0.27644813       0.047
   0.41467220  0.41467220  0.27644813       0.023
   0.00000000  0.00000000  0.41467220       0.006
   0.13822407  0.00000000  0.41467220       0.023
   0.27644813  0.00000000  0.41467220       0.023
   0.41467220  0.00000000  0.41467220       0.023
   0.13822407  0.13822407  0.41467220       0.023
   0.27644813  0.13822407  0.41467220       0.047
   0.41467220  0.13822407  0.41467220       0.047
   0.27644813  0.27644813  0.41467220       0.023
   0.41467220  0.27644813  0.41467220       0.047
   0.41467220  0.41467220  0.41467220       0.023

 k-points in reciprocal lattice and weights: k-points                                
   0.00000000  0.00000000  0.00000000       0.003
   0.14285714  0.00000000  0.00000000       0.012
   0.28571429  0.00000000  0.00000000       0.012
   0.42857143  0.00000000  0.00000000       0.012
   0.14285714  0.14285714  0.00000000       0.012
   0.28571429  0.14285714  0.00000000       0.023
   0.42857143  0.14285714  0.00000000       0.023
   0.28571429  0.28571429  0.00000000       0.012
   0.42857143  0.28571429  0.00000000       0.023
   0.42857143  0.42857143  0.00000000       0.012
   0.00000000  0.00000000  0.14285714       0.006
   0.14285714  0.00000000  0.14285714       0.023
   0.28571429  0.00000000  0.14285714       0.023
   0.42857143  0.00000000  0.14285714       0.023
   0.14285714  0.14285714  0.14285714       0.023
   0.28571429  0.14285714  0.14285714       0.047
   0.42857143  0.14285714  0.14285714       0.047
   0.28571429  0.28571429  0.14285714       0.023
   0.42857143  0.28571429  0.14285714       0.047
   0.42857143  0.42857143  0.14285714       0.023
   0.00000000  0.00000000  0.28571429       0.006
   0.14285714  0.00000000  0.28571429       0.023
   0.28571429  0.00000000  0.28571429       0.023
   0.42857143  0.00000000  0.28571429       0.023
   0.14285714  0.14285714  0.28571429       0.023
   0.28571429  0.14285714  0.28571429       0.047
   0.42857143  0.14285714  0.28571429       0.047
   0.28571429  0.28571429  0.28571429       0.023
   0.42857143  0.28571429  0.28571429       0.047
   0.42857143  0.42857143  0.28571429       0.023
   0.00000000  0.00000000  0.42857143       0.006
   0.14285714  0.00000000  0.42857143       0.023
   0.28571429  0.00000000  0.42857143       0.023
   0.42857143  0.00000000  0.42857143       0.023
   0.14285714  0.14285714  0.42857143       0.023
   0.28571429  0.14285714  0.42857143       0.047
   0.42857143  0.14285714  0.42857143       0.047
   0.28571429  0.28571429  0.42857143       0.023
   0.42857143  0.28571429  0.42857143       0.047
   0.42857143  0.42857143  0.42857143       0.023

 position of ions in fractional coordinates (direct lattice) 
   0.25255826  0.25255826  0.27063683
   0.74744174  0.25255826  0.27063683
   0.25255826  0.74744174  0.27063683
   0.74744174  0.74744174  0.27063683
   0.25255826  0.25255826  0.72936317
   0.74744174  0.25255826  0.72936317
   0.25255826  0.74744174  0.72936317
   0.74744174  0.74744174  0.72936317
   0.50000000  0.00000000  0.00000000
   0.00000000  0.50000000  0.00000000
   0.00000000  0.00000000  0.50000000
   0.50000000  0.00000000  0.50000000
   0.50000000  0.50000000  0.50000000
   0.00000000  0.50000000  0.50000000
   0.00000000  0.00000000  0.00000000
   0.50000000  0.50000000  0.00000000

 position of ions in cartesian coordinates  (Angst):
   1.50349628  1.50349628  1.61111918
   4.44957081  1.50349628  1.61111918
   1.50349628  4.44957081  1.61111918
   4.44957081  4.44957081  1.61111918
   1.50349628  1.50349628  4.34194791
   4.44957081  1.50349628  4.34194791
   1.50349628  4.44957081  4.34194791
   4.44957081  4.44957081  4.34194791
   2.97653355  0.00000000  0.00000000
   0.00000000  2.97653355  0.00000000
   0.00000000  0.00000000  2.97653355
   2.97653355  0.00000000  2.97653355
   2.97653355  2.97653355  2.97653355
   0.00000000  2.97653355  2.97653355
   0.00000000  0.00000000  0.00000000
   2.97653355  2.97653355  0.00000000



--------------------------------------------------------------------------------------------------------


 k-point  1 :   0.0000 0.0000 0.0000  plane waves:    6187
 k-point  2 :   0.1429 0.0000 0.0000  plane waves:    6163
 k-point  3 :   0.2857 0.0000 0.0000  plane waves:    6167
 k-point  4 :   0.4286 0.0000 0.0000  plane waves:    6190
 k-point  5 :   0.1429 0.1429 0.0000  plane waves:    6194
 k-point  6 :   0.2857 0.1429 0.0000  plane waves:    6184
 k-point  7 :   0.4286 0.1429 0.0000  plane waves:    6198
 k-point  8 :   0.2857 0.2857 0.0000  plane waves:    6166
 k-point  9 :   0.4286 0.2857 0.0000  plane waves:    6179
 k-point 10 :   0.4286 0.4286 0.0000  plane waves:    6174
 k-point 11 :   0.0000 0.0000 0.1429  plane waves:    6163
 k-point 12 :   0.1429 0.0000 0.1429  plane waves:    6194
 k-point 13 :   0.2857 0.0000 0.1429  plane waves:    6184
 k-point 14 :   0.4286 0.0000 0.1429  plane waves:    6198
 k-point 15 :   0.1429 0.1429 0.1429  plane waves:    6193
 k-point 16 :   0.2857 0.1429 0.1429  plane waves:    6186
 k-point 17 :   0.4286 0.1429 0.1429  plane waves:    6176
 k-point 18 :   0.2857 0.2857 0.1429  plane waves:    6179
 k-point 19 :   0.4286 0.2857 0.1429  plane waves:    6181
 k-point 20 :   0.4286 0.4286 0.1429  plane waves:    6175
 k-point 21 :   0.0000 0.0000 0.2857  plane waves:    6167
 k-point 22 :   0.1429 0.0000 0.2857  plane waves:    6184
 k-point 23 :   0.2857 0.0000 0.2857  plane waves:    6166
 k-point 24 :   0.4286 0.0000 0.2857  plane waves:    6179
 k-point 25 :   0.1429 0.1429 0.2857  plane waves:    6186
 k-point 26 :   0.2857 0.1429 0.2857  plane waves:    6179
 k-point 27 :   0.4286 0.1429 0.2857  plane waves:    6181
 k-point 28 :   0.2857 0.2857 0.2857  plane waves:    6181
 k-point 29 :   0.4286 0.2857 0.2857  plane waves:    6194
 k-point 30 :   0.4286 0.4286 0.2857  plane waves:    6144
 k-point 31 :   0.0000 0.0000 0.4286  plane waves:    6190
 k-point 32 :   0.1429 0.0000 0.4286  plane waves:    6198
 k-point 33 :   0.2857 0.0000 0.4286  plane waves:    6179
 k-point 34 :   0.4286 0.0000 0.4286  plane waves:    6174
 k-point 35 :   0.1429 0.1429 0.4286  plane waves:    6176
 k-point 36 :   0.2857 0.1429 0.4286  plane waves:    6181
 k-point 37 :   0.4286 0.1429 0.4286  plane waves:    6175
 k-point 38 :   0.2857 0.2857 0.4286  plane waves:    6194
 k-point 39 :   0.4286 0.2857 0.4286  plane waves:    6144
 k-point 40 :   0.4286 0.4286 0.4286  plane waves:    6137

 maximum and minimum number of plane-waves per node :      6198     6137

 maximum number of plane-waves:      6198
 maximum index in each direction: 
   IXMAX=   11   IYMAX=   11   IZMAX=   11
   IXMIN=  -11   IYMIN=  -11   IZMIN=  -11


 serial   3D FFT for wavefunctions
 parallel 3D FFT for charge:
    minimum data exchange during FFTs selected (reduces bandwidth)


 total amount of memory used by VASP MPI-rank0   103312. kBytes
=======================================================================

   base      :      30000. kBytes
   nonlr-proj:       6805. kBytes
   fftplans  :       1269. kBytes
   grid      :       6573. kBytes
   one-center:        497. kBytes
   wavefun   :      58168. kBytes

     INWAV:  cpu time    0.0000: real time    0.0000
 Broyden mixing: mesh for mixing (old mesh)
   NGX = 23   NGY = 23   NGZ = 23
  (NGX  = 72   NGY  = 72   NGZ  = 72)
  gives a total of  12167 points

 initial charge density was supplied:
 charge density of overlapping atoms calculated
 number of electron     128.0000000 magnetization       0.8000000
 keeping initial charge density in first step


--------------------------------------------------------------------------------------------------------


 Maximum index for non-local projection operator         3887
 Maximum index for augmentation-charges         2127 (set IRDMAX)


--------------------------------------------------------------------------------------------------------


 First call to EWALD:  gamma=   0.298
 Maximum number of real-space cells 3x 3x 3
 Maximum number of reciprocal cells 3x 3x 3

    FEWALD:  cpu time    0.0020: real time    0.0020


--------------------------------------- Iteration      1(   1)  ---------------------------------------


    POTLOK:  cpu time    0.1051: real time    0.1080
    SETDIJ:  cpu time    0.0377: real time    0.0378
     EDDAV:  cpu time   23.3963: real time   23.4352
       DOS:  cpu time    0.0036: real time    0.0036
    --------------------------------------------
      LOOP:  cpu time   23.5426: real time   23.5846

 eigenvalue-minimisations  : 13440
 total energy-change (2. order) : 0.1068811E+04  (-0.5418068E+04)
 number of electron     128.0000000 magnetization       0.8000000
 augmentation part      128.0000000 magnetization       0.8000000

 Free energy of the ion-electron system (eV)
  ---------------------------------------------------
  alpha Z        PSCENC =       533.36562945
  Ewald energy   TEWEN  =     -9275.84321769
  -Hartree energ DENC   =     -3156.09236625
  -exchange      EXHF   =         0.00000000
  -V(xc)+E(xc)   XCENC  =        78.36122242
  PAW double counting   =     10320.96726947   -10647.99417394
  entropy T*S    EENTRO =        -0.00095450
  eigenvalues    EBANDS =      1986.58528452
  atomic energy  EATOM  =     11229.46195210
  Solvation  Ediel_sol  =         0.00000000
  ---------------------------------------------------
  free energy    TOTEN  =      1068.81064559 eV

  energy without entropy =     1068.81160009  energy(sigma->0) =     1068.81112284


--------------------------------------------------------------------------------------------------------




--------------------------------------- Iteration      1(   2)  ---------------------------------------


     EDDAV:  cpu time   23.3487: real time   24.3326
       DOS:  cpu time    0.0036: real time    0.0036
    --------------------------------------------
      LOOP:  cpu time   23.3523: real time   24.3362

 eigenvalue-minimisations  : 13440
 total energy-change (2. order) :-0.1067599E+04  (-0.1034792E+04)
 number of electron     128.0000000 magnetization       0.8000000
 augmentation part      128.0000000 magnetization       0.8000000

 Free energy of the ion-electron system (eV)
  ---------------------------------------------------
  alpha Z        PSCENC =       533.36562945
  Ewald energy   TEWEN  =     -9275.84321769
  -Hartree energ DENC   =     -3156.09236625
  -exchange      EXHF   =         0.00000000
  -V(xc)+E(xc)   XCENC  =        78.36122242
  PAW double counting   =     10320.96726947   -10647.99417394
  entropy T*S    EENTRO =        -0.00204474
  eigenvalues    EBANDS =       918.98750309
  atomic energy  EATOM  =     11229.46195210
  Solvation  Ediel_sol  =         0.00000000
  ---------------------------------------------------
  free energy    TOTEN  =         1.21177392 eV

  energy without entropy =        1.21381866  energy(sigma->0) =        1.21279629


--------------------------------------------------------------------------------------------------------




--------------------------------------- Iteration      1(   3)  ---------------------------------------


     EDDAV:  cpu time   25.5769: real time   25.6328
       DOS:  cpu time    0.0038: real time    0.0038
    --------------------------------------------
      LOOP:  cpu time   25.5806: real time   25.6366

 eigenvalue-minimisations  : 15048
 total energy-change (2. order) :-0.1112416E+03  (-0.1002105E+03)
 number of electron     128.0000000 magnetization       0.8000000
 augmentation part      128.0000000 magnetization       0.8000000

 Free energy of the ion-electron system (eV)
  ---------------------------------------------------
  alpha Z        PSCENC =       533.36562945
  Ewald energy   TEWEN  =     -9275.84321769
  -Hartree energ DENC   =     -3156.09236625
  -exchange      EXHF   =         0.00000000
  -V(xc)+E(xc)   XCENC  =        78.36122242
  PAW double counting   =     10320.96726947   -10647.99417394
  entropy T*S    EENTRO =        -0.00293752
  eigenvalues    EBANDS =       807.74678662
  atomic energy  EATOM  =     11229.46195210
  Solvation  Ediel_sol  =         0.00000000
  ---------------------------------------------------
  free energy    TOTEN  =      -110.02983532 eV

  energy without entropy =     -110.02689781  energy(sigma->0) =     -110.02836656


--------------------------------------------------------------------------------------------------------




--------------------------------------- Iteration      1(   4)  ---------------------------------------


     EDDAV:  cpu time   32.8320: real time   32.8832
       DOS:  cpu time    0.0035: real time    0.0036
    --------------------------------------------
      LOOP:  cpu time   32.8356: real time   32.8868

 eigenvalue-minimisations  : 20340
 total energy-change (2. order) :-0.6864726E+01  (-0.6514180E+01)
 number of electron     128.0000000 magnetization       0.8000000
 augmentation part      128.0000000 magnetization       0.8000000

 Free energy of the ion-electron system (eV)
  ---------------------------------------------------
  alpha Z        PSCENC =       533.36562945
  Ewald energy   TEWEN  =     -9275.84321769
  -Hartree energ DENC   =     -3156.09236625
  -exchange      EXHF   =         0.00000000
  -V(xc)+E(xc)   XCENC  =        78.36122242
  PAW double counting   =     10320.96726947   -10647.99417394
  entropy T*S    EENTRO =        -0.00270201
  eigenvalues    EBANDS =       800.88182544
  atomic energy  EATOM  =     11229.46195210
  Solvation  Ediel_sol  =         0.00000000
  ---------------------------------------------------
  free energy    TOTEN  =      -116.89456100 eV

  energy without entropy =     -116.89185899  energy(sigma->0) =     -116.89320999


--------------------------------------------------------------------------------------------------------




--------------------------------------- Iteration      1(   5)  ---------------------------------------


     EDDAV:  cpu time   31.9985: real time   32.0319
       DOS:  cpu time    0.0037: real time    0.0037
    CHARGE:  cpu time    0.6867: real time    0.6872
    MIXING:  cpu time    0.0016: real time    0.0016
    --------------------------------------------
      LOOP:  cpu time   32.6904: real time   32.7244

 eigenvalue-minimisations  : 19800
 total energy-change (2. order) :-0.2239937E+00  (-0.2229412E+00)
 number of electron     128.0000188 magnetization       1.2404184
 augmentation part       60.5877908 magnetization       0.7011792

 Broyden mixing:
  rms(total) = 0.34512E+01    rms(broyden)= 0.34511E+01
  rms(prec ) = 0.52896E+01
  weight for this iteration     100.00

 Free energy of the ion-electron system (eV)
  ---------------------------------------------------
  alpha Z        PSCENC =       533.36562945
  Ewald energy   TEWEN  =     -9275.84321769
  -Hartree energ DENC   =     -3156.09236625
  -exchange      EXHF   =         0.00000000
  -V(xc)+E(xc)   XCENC  =        78.36122242
  PAW double counting   =     10320.96726947   -10647.99417394
  entropy T*S    EENTRO =        -0.00287373
  eigenvalues    EBANDS =       800.65800348
  atomic energy  EATOM  =     11229.46195210
  Solvation  Ediel_sol  =         0.00000000
  ---------------------------------------------------
  free energy    TOTEN  =      -117.11855469 eV

  energy without entropy =     -117.11568095  energy(sigma->0) =     -117.11711782


--------------------------------------------------------------------------------------------------------




--------------------------------------- Iteration      1(   6)  ---------------------------------------


    POTLOK:  cpu time    0.1039: real time    0.1045
    SETDIJ:  cpu time    0.0383: real time    0.0383
    EDDIAG:  cpu time    3.3379: real time    3.3412
  RMM-DIIS:  cpu time   10.5142: real time   10.5249
    ORTHCH:  cpu time    0.6351: real time    0.6358
       DOS:  cpu time    0.0039: real time    0.0039
    CHARGE:  cpu time    0.6883: real time    0.6888
    MIXING:  cpu time    0.0017: real time    0.0017
    --------------------------------------------
      LOOP:  cpu time   15.3232: real time   15.3392

 eigenvalue-minimisations  : 13440
 total energy-change (2. order) : 0.8973980E+01  (-0.1554630E+02)
 number of electron     128.0000232 magnetization       0.9677334
 augmentation part       69.9404069 magnetization       0.7523186

 Broyden mixing:
  rms(total) = 0.41302E+01    rms(broyden)= 0.41302E+01
  rms(prec ) = 0.51445E+01
  weight for this iteration     100.00

 eigenvalues of (default mixing * dielectric matrix)
  average eigenvalue GAMMA=   0.2409
  0.2409

 Free energy of the ion-electron system (eV)
  ---------------------------------------------------
  alpha Z        PSCENC =       533.36562945
  Ewald energy   TEWEN  =     -9275.84321769
  -Hartree energ DENC   =     -2917.72231541
  -exchange      EXHF   =         0.00000000
  -V(xc)+E(xc)   XCENC  =        66.30718541
  PAW double counting   =     11126.22018040   -11418.44122816
  entropy T*S    EENTRO =        -0.00638259
  eigenvalues    EBANDS =       548.51362201
  atomic energy  EATOM  =     11229.46195210
  Solvation  Ediel_sol  =         0.00000000
  ---------------------------------------------------
  free energy    TOTEN  =      -108.14457448 eV

  energy without entropy =     -108.13819189  energy(sigma->0) =     -108.14138318


--------------------------------------------------------------------------------------------------------




--------------------------------------- Iteration      1(   7)  ---------------------------------------


    POTLOK:  cpu time    0.0983: real time    0.0984
    SETDIJ:  cpu time    0.0365: real time    0.0365
    EDDIAG:  cpu time    3.3039: real time    3.3075
  RMM-DIIS:  cpu time   10.6495: real time   10.6603
    ORTHCH:  cpu time    0.6373: real time    0.6380
       DOS:  cpu time    0.0037: real time    0.0038
    CHARGE:  cpu time    0.6875: real time    0.6881
    MIXING:  cpu time    0.0017: real time    0.0017
    --------------------------------------------
      LOOP:  cpu time   15.4184: real time   15.4342

 eigenvalue-minimisations  : 13601
 total energy-change (2. order) :-0.2778713E+00  (-0.1804539E+01)
 number of electron     128.0000211 magnetization       0.9056906
 augmentation part       69.6422671 magnetization       0.9628345

 Broyden mixing:
  rms(total) = 0.31015E+01    rms(broyden)= 0.31015E+01
  rms(prec ) = 0.53651E+01
  weight for this iteration     100.00

 eigenvalues of (default mixing * dielectric matrix)
  average eigenvalue GAMMA=   0.4740
  0.4740  0.4740

 Free energy of the ion-electron system (eV)
  ---------------------------------------------------
  alpha Z        PSCENC =       533.36562945
  Ewald energy   TEWEN  =     -9275.84321769
  -Hartree energ DENC   =     -2924.76331393
  -exchange      EXHF   =         0.00000000
  -V(xc)+E(xc)   XCENC  =        69.10779521
  PAW double counting   =     11482.98699789   -11787.08919728
  entropy T*S    EENTRO =        -0.00184518
  eigenvalues    EBANDS =       564.35275363
  atomic energy  EATOM  =     11229.46195210
  Solvation  Ediel_sol  =         0.00000000
  ---------------------------------------------------
  free energy    TOTEN  =      -108.42244579 eV

  energy without entropy =     -108.42060062  energy(sigma->0) =     -108.42152320


--------------------------------------------------------------------------------------------------------




--------------------------------------- Iteration      1(   8)  ---------------------------------------


    POTLOK:  cpu time    0.0993: real time    0.0994
    SETDIJ:  cpu time    0.0366: real time    0.0366
    EDDIAG:  cpu time    3.3144: real time    3.3178
  RMM-DIIS:  cpu time   10.6919: real time   10.7029
    ORTHCH:  cpu time    0.6406: real time    0.6412
       DOS:  cpu time    0.0037: real time    0.0038
    CHARGE:  cpu time    0.6884: real time    0.6891
    MIXING:  cpu time    0.0017: real time    0.0017
    --------------------------------------------
      LOOP:  cpu time   15.4766: real time   15.4924

 eigenvalue-minimisations  : 13440
 total energy-change (2. order) : 0.1428384E+01  (-0.2099860E+01)
 number of electron     128.0000236 magnetization       1.5877778
 augmentation part       67.9361688 magnetization       0.3290376

 Broyden mixing:
  rms(total) = 0.28787E+01    rms(broyden)= 0.28785E+01
  rms(prec ) = 0.53528E+01
  weight for this iteration     100.00

 eigenvalues of (default mixing * dielectric matrix)
  average eigenvalue GAMMA=   0.4344
  0.5727  0.5727  0.1580

 Free energy of the ion-electron system (eV)
  ---------------------------------------------------
  alpha Z        PSCENC =       533.36562945
  Ewald energy   TEWEN  =     -9275.84321769
  -Hartree energ DENC   =     -2969.15780316
  -exchange      EXHF   =         0.00000000
  -V(xc)+E(xc)   XCENC  =        72.32413598
  PAW double counting   =     11814.47208460   -12139.35688653
  entropy T*S    EENTRO =        -0.00239960
  eigenvalues    EBANDS =       627.74244348
  atomic energy  EATOM  =     11229.46195210
  Solvation  Ediel_sol  =         0.00000000
  ---------------------------------------------------
  free energy    TOTEN  =      -106.99406137 eV

  energy without entropy =     -106.99166176  energy(sigma->0) =     -106.99286157


--------------------------------------------------------------------------------------------------------




--------------------------------------- Iteration      1(   9)  ---------------------------------------


    POTLOK:  cpu time    0.0985: real time    0.0986
    SETDIJ:  cpu time    0.0365: real time    0.0365
    EDDIAG:  cpu time    3.3194: real time    3.3229
  RMM-DIIS:  cpu time   10.8996: real time   10.9110
    ORTHCH:  cpu time    0.6425: real time    0.6431
       DOS:  cpu time    0.0038: real time    0.0038
    CHARGE:  cpu time    0.6878: real time    0.6883
    MIXING:  cpu time    0.0018: real time    0.0018
    --------------------------------------------
      LOOP:  cpu time   15.6899: real time   15.7061

 eigenvalue-minimisations  : 13910
 total energy-change (2. order) : 0.3051845E+01  (-0.3802807E+00)
 number of electron     128.0000214 magnetization       1.5513988
 augmentation part       66.9765756 magnetization       1.5093780

 Broyden mixing:
  rms(total) = 0.15275E+01    rms(broyden)= 0.15274E+01
  rms(prec ) = 0.25801E+01
  weight for this iteration     100.00

 eigenvalues of (default mixing * dielectric matrix)
  average eigenvalue GAMMA=   0.5070
  1.0039  0.4954  0.3867  0.1418

 Free energy of the ion-electron system (eV)
  ---------------------------------------------------
  alpha Z        PSCENC =       533.36562945
  Ewald energy   TEWEN  =     -9275.84321769
  -Hartree energ DENC   =     -2975.66539941
  -exchange      EXHF   =         0.00000000
  -V(xc)+E(xc)   XCENC  =        72.74454674
  PAW double counting   =     12032.84559792   -12364.34791360
  entropy T*S    EENTRO =        -0.00348210
  eigenvalues    EBANDS =       643.50007069
  atomic energy  EATOM  =     11229.46195210
  Solvation  Ediel_sol  =         0.00000000
  ---------------------------------------------------
  free energy    TOTEN  =      -103.94221590 eV

  energy without entropy =     -103.93873380  energy(sigma->0) =     -103.94047485


--------------------------------------------------------------------------------------------------------




--------------------------------------- Iteration      1(  10)  ---------------------------------------


    POTLOK:  cpu time    0.1038: real time    0.1045
    SETDIJ:  cpu time    0.0377: real time    0.0377
    EDDIAG:  cpu time    3.3615: real time    3.3650
  RMM-DIIS:  cpu time   10.5402: real time   10.5508
    ORTHCH:  cpu time    0.6398: real time    0.6405
       DOS:  cpu time    0.0037: real time    0.0037
    CHARGE:  cpu time    0.6913: real time    0.6919
    MIXING:  cpu time    0.0020: real time    0.0020
    --------------------------------------------
      LOOP:  cpu time   15.3799: real time   15.3961

 eigenvalue-minimisations  : 13447
 total energy-change (2. order) : 0.5836693E+00  (-0.2362492E+00)
 number of electron     128.0000217 magnetization       1.1360446
 augmentation part       67.8758504 magnetization       0.8158407

 Broyden mixing:
  rms(total) = 0.10456E+01    rms(broyden)= 0.10455E+01
  rms(prec ) = 0.16838E+01
  weight for this iteration     100.00

 eigenvalues of (default mixing * dielectric matrix)
  average eigenvalue GAMMA=   0.4949
  1.1346  0.5035  0.5035  0.1901  0.1430

 Free energy of the ion-electron system (eV)
  ---------------------------------------------------
  alpha Z        PSCENC =       533.36562945
  Ewald energy   TEWEN  =     -9275.84321769
  -Hartree energ DENC   =     -2960.81089989
  -exchange      EXHF   =         0.00000000
  -V(xc)+E(xc)   XCENC  =        72.27892822
  PAW double counting   =     12258.44507011   -12591.36635214
  entropy T*S    EENTRO =        -0.00186135
  eigenvalues    EBANDS =       631.11220462
  atomic energy  EATOM  =     11229.46195210
  Solvation  Ediel_sol  =         0.00000000
  ---------------------------------------------------
  free energy    TOTEN  =      -103.35854656 eV

  energy without entropy =     -103.35668521  energy(sigma->0) =     -103.35761588


--------------------------------------------------------------------------------------------------------




--------------------------------------- Iteration      1(  11)  ---------------------------------------


    POTLOK:  cpu time    0.0987: real time    0.0988
    SETDIJ:  cpu time    0.0365: real time    0.0365
    EDDIAG:  cpu time    3.3358: real time    3.3394
  RMM-DIIS:  cpu time   10.7647: real time   10.7754
    ORTHCH:  cpu time    0.6419: real time    0.6426
       DOS:  cpu time    0.0036: real time    0.0036
    CHARGE:  cpu time    0.6918: real time    0.6923
    MIXING:  cpu time    0.0020: real time    0.0020
    --------------------------------------------
      LOOP:  cpu time   15.5751: real time   15.5907

 eigenvalue-minimisations  : 13605
 total energy-change (2. order) : 0.1928962E+00  (-0.4248610E-01)
 number of electron     128.0000217 magnetization       0.8229791
 augmentation part       67.6533336 magnetization       0.7700914

 Broyden mixing:
  rms(total) = 0.52881E+00    rms(broyden)= 0.52879E+00
  rms(prec ) = 0.63093E+00
  weight for this iteration     100.00

 eigenvalues of (default mixing * dielectric matrix)
  average eigenvalue GAMMA=   0.5370
  1.1484  0.6178  0.6178  0.4998  0.2026  0.1359

 Free energy of the ion-electron system (eV)
  ---------------------------------------------------
  alpha Z        PSCENC =       533.36562945
  Ewald energy   TEWEN  =     -9275.84321769
  -Hartree energ DENC   =     -2960.25882536
  -exchange      EXHF   =         0.00000000
  -V(xc)+E(xc)   XCENC  =        73.26739909
  PAW double counting   =     12471.39330998   -12808.82399674
  entropy T*S    EENTRO =        -0.00235942
  eigenvalues    EBANDS =       634.27445818
  atomic energy  EATOM  =     11229.46195210
  Solvation  Ediel_sol  =         0.00000000
  ---------------------------------------------------
  free energy    TOTEN  =      -103.16565041 eV

  energy without entropy =     -103.16329098  energy(sigma->0) =     -103.16447069


--------------------------------------------------------------------------------------------------------




--------------------------------------- Iteration      1(  12)  ---------------------------------------


    POTLOK:  cpu time    0.1005: real time    0.1006
    SETDIJ:  cpu time    0.0364: real time    0.0364
    EDDIAG:  cpu time    3.3404: real time    3.3440
  RMM-DIIS:  cpu time   10.6532: real time   10.6638
    ORTHCH:  cpu time    0.6377: real time    0.6383
       DOS:  cpu time    0.0038: real time    0.0038
    CHARGE:  cpu time    0.6941: real time    0.6947
    MIXING:  cpu time    0.0022: real time    0.0022
    --------------------------------------------
      LOOP:  cpu time   15.4682: real time   15.4838

 eigenvalue-minimisations  : 13490
 total energy-change (2. order) :-0.1164096E+00  (-0.2930835E-01)
 number of electron     128.0000218 magnetization       0.2697304
 augmentation part       67.4955765 magnetization       0.1136890

 Broyden mixing:
  rms(total) = 0.51207E+00    rms(broyden)= 0.51207E+00
  rms(prec ) = 0.65219E+00
  weight for this iteration     100.00

 eigenvalues of (default mixing * dielectric matrix)
  average eigenvalue GAMMA=   0.6177
  1.5563  0.7703  0.7703  0.6142  0.1362  0.1996  0.2771

 Free energy of the ion-electron system (eV)
  ---------------------------------------------------
  alpha Z        PSCENC =       533.36562945
  Ewald energy   TEWEN  =     -9275.84321769
  -Hartree energ DENC   =     -2960.50585043
  -exchange      EXHF   =         0.00000000
  -V(xc)+E(xc)   XCENC  =        73.99437001
  PAW double counting   =     12584.82822658   -12924.77423943
  entropy T*S    EENTRO =        -0.00175797
  eigenvalues    EBANDS =       636.19282738
  atomic energy  EATOM  =     11229.46195210
  Solvation  Ediel_sol  =         0.00000000
  ---------------------------------------------------
  free energy    TOTEN  =      -103.28206000 eV

  energy without entropy =     -103.28030203  energy(sigma->0) =     -103.28118101


--------------------------------------------------------------------------------------------------------




--------------------------------------- Iteration      1(  13)  ---------------------------------------


    POTLOK:  cpu time    0.0985: real time    0.0986
    SETDIJ:  cpu time    0.0364: real time    0.0365
    EDDIAG:  cpu time    3.3541: real time    3.3575
  RMM-DIIS:  cpu time   10.6806: real time   10.6915
    ORTHCH:  cpu time    0.6407: real time    0.6413
       DOS:  cpu time    0.0037: real time    0.0038
    CHARGE:  cpu time    0.6956: real time    0.6960
    MIXING:  cpu time    0.0023: real time    0.0023
    --------------------------------------------
      LOOP:  cpu time   15.5120: real time   15.5275

 eigenvalue-minimisations  : 13557
 total energy-change (2. order) :-0.5859588E-01  (-0.1845767E-01)
 number of electron     128.0000218 magnetization       0.0579845
 augmentation part       67.7863889 magnetization       0.0387085

 Broyden mixing:
  rms(total) = 0.24801E+00    rms(broyden)= 0.24800E+00
  rms(prec ) = 0.31196E+00
  weight for this iteration     100.00

 eigenvalues of (default mixing * dielectric matrix)
  average eigenvalue GAMMA=   0.6901
  2.0040  1.0055  0.6646  0.6646  0.5808  0.1361  0.1994  0.2657

 Free energy of the ion-electron system (eV)
  ---------------------------------------------------
  alpha Z        PSCENC =       533.36562945
  Ewald energy   TEWEN  =     -9275.84321769
  -Hartree energ DENC   =     -2953.25144342
  -exchange      EXHF   =         0.00000000
  -V(xc)+E(xc)   XCENC  =        74.80370519
  PAW double counting   =     12792.05355269   -13134.59058979
  entropy T*S    EENTRO =        -0.00212106
  eigenvalues    EBANDS =       630.66187666
  atomic energy  EATOM  =     11229.46195210
  Solvation  Ediel_sol  =         0.00000000
  ---------------------------------------------------
  free energy    TOTEN  =      -103.34065587 eV

  energy without entropy =     -103.33853481  energy(sigma->0) =     -103.33959534


--------------------------------------------------------------------------------------------------------




--------------------------------------- Iteration      1(  14)  ---------------------------------------


    POTLOK:  cpu time    0.1039: real time    0.1045
    SETDIJ:  cpu time    0.0381: real time    0.0381
    EDDIAG:  cpu time    3.3901: real time    3.3937
  RMM-DIIS:  cpu time   10.9683: real time   10.9792
    ORTHCH:  cpu time    0.6426: real time    0.6432
       DOS:  cpu time    0.0038: real time    0.0038
    CHARGE:  cpu time    0.6993: real time    0.6998
    MIXING:  cpu time    0.0025: real time    0.0025
    --------------------------------------------
      LOOP:  cpu time   15.8486: real time   15.8648

 eigenvalue-minimisations  : 13689
 total energy-change (2. order) :-0.2029190E-01  (-0.8565134E-02)
 number of electron     128.0000218 magnetization      -0.0620845
 augmentation part       67.6676052 magnetization      -0.0084401

 Broyden mixing:
  rms(total) = 0.17931E+00    rms(broyden)= 0.17931E+00
  rms(prec ) = 0.24132E+00
  weight for this iteration     100.00

 eigenvalues of (default mixing * dielectric matrix)
  average eigenvalue GAMMA=   0.6759
  2.1018  0.9634  0.9634  0.5368  0.5368  0.3719  0.1361  0.2008  0.2726

 Free energy of the ion-electron system (eV)
  ---------------------------------------------------
  alpha Z        PSCENC =       533.36562945
  Ewald energy   TEWEN  =     -9275.84321769
  -Hartree energ DENC   =     -2954.57440842
  -exchange      EXHF   =         0.00000000
  -V(xc)+E(xc)   XCENC  =        75.21903296
  PAW double counting   =     12856.55975329   -13200.54294305
  entropy T*S    EENTRO =        -0.00194428
  eigenvalues    EBANDS =       632.99519787
  atomic energy  EATOM  =     11229.46195210
  Solvation  Ediel_sol  =         0.00000000
  ---------------------------------------------------
  free energy    TOTEN  =      -103.36094777 eV

  energy without entropy =     -103.35900349  energy(sigma->0) =     -103.35997563


--------------------------------------------------------------------------------------------------------




--------------------------------------- Iteration      1(  15)  ---------------------------------------


    POTLOK:  cpu time    0.0987: real time    0.0987
    SETDIJ:  cpu time    0.0363: real time    0.0364
    EDDIAG:  cpu time    3.3707: real time    3.3742
  RMM-DIIS:  cpu time   11.2666: real time   11.2778
    ORTHCH:  cpu time    0.6395: real time    0.6401
       DOS:  cpu time    0.0036: real time    0.0037
    CHARGE:  cpu time    0.6993: real time    0.6997
    MIXING:  cpu time    0.0027: real time    0.0027
    --------------------------------------------
      LOOP:  cpu time   16.1174: real time   16.1334

 eigenvalue-minimisations  : 14026
 total energy-change (2. order) :-0.1733758E-03  (-0.2555173E-02)
 number of electron     128.0000218 magnetization      -0.2114833
 augmentation part       67.7414599 magnetization      -0.1860625

 Broyden mixing:
  rms(total) = 0.89445E-01    rms(broyden)= 0.89444E-01
  rms(prec ) = 0.11495E+00
  weight for this iteration     100.00

 eigenvalues of (default mixing * dielectric matrix)
  average eigenvalue GAMMA=   0.7456
  2.2852  1.1569  1.1569  0.7163  0.7163  0.5336  0.1361  0.2008  0.2961  0.2577

 Free energy of the ion-electron system (eV)
  ---------------------------------------------------
  alpha Z        PSCENC =       533.36562945
  Ewald energy   TEWEN  =     -9275.84321769
  -Hartree energ DENC   =     -2953.17198926
  -exchange      EXHF   =         0.00000000
  -V(xc)+E(xc)   XCENC  =        75.21010425
  PAW double counting   =     12886.42469575   -13230.51039022
  entropy T*S    EENTRO =        -0.00182443
  eigenvalues    EBANDS =       631.70391891
  atomic energy  EATOM  =     11229.46195210
  Solvation  Ediel_sol  =         0.00000000
  ---------------------------------------------------
  free energy    TOTEN  =      -103.36112115 eV

  energy without entropy =     -103.35929672  energy(sigma->0) =     -103.36020894


--------------------------------------------------------------------------------------------------------




--------------------------------------- Iteration      1(  16)  ---------------------------------------


    POTLOK:  cpu time    0.0990: real time    0.0991
    SETDIJ:  cpu time    0.0390: real time    0.0391
    EDDIAG:  cpu time    3.3647: real time    3.3681
  RMM-DIIS:  cpu time   11.7533: real time   11.7650
    ORTHCH:  cpu time    0.6421: real time    0.6426
       DOS:  cpu time    0.0036: real time    0.0037
    CHARGE:  cpu time    0.7021: real time    0.7027
    MIXING:  cpu time    0.0027: real time    0.0027
    --------------------------------------------
      LOOP:  cpu time   16.6065: real time   16.6232

 eigenvalue-minimisations  : 14642
 total energy-change (2. order) :-0.4088470E-02  (-0.1169817E-02)
 number of electron     128.0000218 magnetization      -0.2634435
 augmentation part       67.7286073 magnetization      -0.2388089

 Broyden mixing:
  rms(total) = 0.37472E-01    rms(broyden)= 0.37470E-01
  rms(prec ) = 0.44163E-01
  weight for this iteration     100.00

 eigenvalues of (default mixing * dielectric matrix)
  average eigenvalue GAMMA=   0.8073
  2.2266  1.9885  0.9069  0.8874  0.7191  0.7191  0.5323  0.1361  0.2008  0.3088
  0.2546

 Free energy of the ion-electron system (eV)
  ---------------------------------------------------
  alpha Z        PSCENC =       533.36562945
  Ewald energy   TEWEN  =     -9275.84321769
  -Hartree energ DENC   =     -2953.21820758
  -exchange      EXHF   =         0.00000000
  -V(xc)+E(xc)   XCENC  =        75.37745713
  PAW double counting   =     12912.98726804   -13257.30859108
  entropy T*S    EENTRO =        -0.00182630
  eigenvalues    EBANDS =       631.81432631
  atomic energy  EATOM  =     11229.46195210
  Solvation  Ediel_sol  =         0.00000000
  ---------------------------------------------------
  free energy    TOTEN  =      -103.36520962 eV

  energy without entropy =     -103.36338332  energy(sigma->0) =     -103.36429647


--------------------------------------------------------------------------------------------------------




--------------------------------------- Iteration      1(  17)  ---------------------------------------


    POTLOK:  cpu time    0.0987: real time    0.0987
    SETDIJ:  cpu time    0.0363: real time    0.0363
    EDDIAG:  cpu time    3.3732: real time    3.3766
  RMM-DIIS:  cpu time   12.5684: real time   12.5809
    ORTHCH:  cpu time    0.6365: real time    0.6371
       DOS:  cpu time    0.0037: real time    0.0038
    CHARGE:  cpu time    0.7027: real time    0.7032
    MIXING:  cpu time    0.0029: real time    0.0029
    --------------------------------------------
      LOOP:  cpu time   17.4224: real time   17.4395

 eigenvalue-minimisations  : 15643
 total energy-change (2. order) :-0.1998970E-03  (-0.2397921E-03)
 number of electron     128.0000218 magnetization      -0.2792245
 augmentation part       67.7361678 magnetization      -0.2492182

 Broyden mixing:
  rms(total) = 0.19325E-01    rms(broyden)= 0.19325E-01
  rms(prec ) = 0.25620E-01
  weight for this iteration     100.00

 eigenvalues of (default mixing * dielectric matrix)
  average eigenvalue GAMMA=   0.8580
  2.2631  2.2631  1.0628  1.0628  0.7835  0.7835  0.6363  0.5407  0.1361  0.2008
  0.2545  0.3094

 Free energy of the ion-electron system (eV)
  ---------------------------------------------------
  alpha Z        PSCENC =       533.36562945
  Ewald energy   TEWEN  =     -9275.84321769
  -Hartree energ DENC   =     -2953.14209917
  -exchange      EXHF   =         0.00000000
  -V(xc)+E(xc)   XCENC  =        75.41984412
  PAW double counting   =     12919.64795730   -13263.92180738
  entropy T*S    EENTRO =        -0.00187824
  eigenvalues    EBANDS =       631.64820999
  atomic energy  EATOM  =     11229.46195210
  Solvation  Ediel_sol  =         0.00000000
  ---------------------------------------------------
  free energy    TOTEN  =      -103.36540952 eV

  energy without entropy =     -103.36353128  energy(sigma->0) =     -103.36447040


--------------------------------------------------------------------------------------------------------




--------------------------------------- Iteration      1(  18)  ---------------------------------------


    POTLOK:  cpu time    0.0987: real time    0.0993
    SETDIJ:  cpu time    0.0365: real time    0.0366
    EDDIAG:  cpu time    3.3878: real time    3.3913
  RMM-DIIS:  cpu time   12.5422: real time   12.5549
    ORTHCH:  cpu time    0.6396: real time    0.6403
       DOS:  cpu time    0.0035: real time    0.0035
    CHARGE:  cpu time    0.7078: real time    0.7083
    MIXING:  cpu time    0.0032: real time    0.0032
    --------------------------------------------
      LOOP:  cpu time   17.4193: real time   17.4375

 eigenvalue-minimisations  : 15500
 total energy-change (2. order) : 0.7577733E-05  (-0.4058863E-04)
 number of electron     128.0000218 magnetization      -0.2802331
 augmentation part       67.7353546 magnetization      -0.2466958

 Broyden mixing:
  rms(total) = 0.78023E-02    rms(broyden)= 0.78020E-02
  rms(prec ) = 0.12900E-01
  weight for this iteration     100.00

 eigenvalues of (default mixing * dielectric matrix)
  average eigenvalue GAMMA=   0.8939
  2.4508  2.4508  1.1945  1.1945  0.7768  0.7768  0.7014  0.6320  0.5415  0.1361
  0.2008  0.3097  0.2546

 Free energy of the ion-electron system (eV)
  ---------------------------------------------------
  alpha Z        PSCENC =       533.36562945
  Ewald energy   TEWEN  =     -9275.84321769
  -Hartree energ DENC   =     -2953.19102168
  -exchange      EXHF   =         0.00000000
[...]
     79      11.2725      0.00000
     80      11.4284      0.00000
     81      11.6688      0.00000
     82      11.6972      0.00000
     83      11.9575      0.00000
     84      12.1336      0.00000


--------------------------------------------------------------------------------------------------------


 soft charge-density along one line, spin component           1
         0         1         2         3         4         5         6         7         8         9
 total charge-density along one line

 soft charge-density along one line, spin component           2
         0         1         2         3         4         5         6         7         8         9
 total charge-density along one line

 pseudopotential strength for first ion, spin component:           1
 -1.574  -0.007   0.020  -0.007   0.000  -2.213  -0.007   0.019
 -0.007  -1.581   0.009  -0.013  -0.013  -0.007  -2.220   0.008
  0.020   0.009  -1.565   0.009   0.000   0.019   0.008  -2.204
 -0.007  -0.013   0.009  -1.581   0.013  -0.007  -0.013   0.008
  0.000  -0.013   0.000   0.013  -1.545   0.000  -0.013   0.000
 -2.213  -0.007   0.019  -0.007   0.000  -2.782  -0.006   0.019
 -0.007  -2.220   0.008  -0.013  -0.013  -0.006  -2.788   0.008
  0.019   0.008  -2.204   0.008   0.000   0.019   0.008  -2.773
 -0.007  -0.013   0.008  -2.220   0.013  -0.006  -0.012   0.008
  0.000  -0.013   0.000   0.013  -2.185   0.000  -0.012   0.000
  0.003  -0.003   0.003  -0.003   0.000   0.003  -0.003   0.003
  0.005  -0.005   0.005  -0.005   0.000   0.005  -0.005   0.005
 -0.002  -0.012   0.001   0.003   0.001  -0.002  -0.011   0.001
  0.003  -0.002  -0.013  -0.002  -0.000   0.003  -0.002  -0.013
 -0.002   0.003   0.001  -0.012  -0.001  -0.002   0.003   0.001
 -0.003  -0.014   0.001   0.004   0.002  -0.003  -0.013   0.001
  0.004  -0.003  -0.014  -0.003  -0.000   0.004  -0.003  -0.014
 -0.003   0.004   0.001  -0.014  -0.002  -0.003   0.004   0.001
 pseudopotential strength for first ion, spin component:           2
 -1.617   0.005   0.009   0.005   0.000  -2.254   0.005   0.009
  0.005  -1.621  -0.011  -0.015   0.021   0.005  -2.257  -0.011
  0.009  -0.011  -1.618  -0.011   0.000   0.009  -0.011  -2.255
  0.005  -0.015  -0.011  -1.621  -0.021   0.005  -0.015  -0.011
  0.000   0.021   0.000  -0.021  -1.623   0.000   0.020   0.000
 -2.254   0.005   0.009   0.005   0.000  -2.820   0.005   0.008
  0.005  -2.257  -0.011  -0.015   0.020   0.005  -2.824  -0.010
  0.009  -0.011  -2.255  -0.011   0.000   0.008  -0.010  -2.821
  0.005  -0.015  -0.011  -2.257  -0.020   0.005  -0.014  -0.010
  0.000   0.020   0.000  -0.020  -2.259   0.000   0.019   0.000
  0.001   0.004  -0.001   0.004   0.000   0.001   0.004  -0.001
  0.001   0.007  -0.002   0.007   0.000   0.002   0.007  -0.001
  0.002  -0.004  -0.000  -0.002  -0.000   0.002  -0.004  -0.000
 -0.002   0.002  -0.010   0.002  -0.000  -0.002   0.001  -0.010
  0.002  -0.002  -0.000  -0.004   0.000   0.002  -0.002  -0.000
  0.002  -0.003  -0.000  -0.002  -0.000   0.002  -0.003  -0.000
 -0.002   0.002  -0.010   0.002  -0.000  -0.002   0.002  -0.010
  0.002  -0.002  -0.000  -0.003   0.000   0.002  -0.002  -0.000
 total augmentation occupancy for first ion, spin component:           1
  2.005   0.027   0.098   0.027   0.000  -0.526  -0.016  -0.071  -0.016   0.000  -0.106   0.027  -0.011   0.046  -0.011   0.001
  0.027   2.025   0.003   0.080   0.026  -0.016  -0.547  -0.004  -0.082  -0.011   0.002  -0.002   0.023  -0.000   0.042  -0.011
  0.098   0.003   2.717   0.003   0.000  -0.071  -0.004  -1.032  -0.004  -0.000  -0.041   0.005   0.008  -0.085   0.008  -0.001
  0.027   0.080   0.003   2.025  -0.026  -0.016  -0.082  -0.004  -0.547   0.011   0.002  -0.002   0.042  -0.000   0.023  -0.008
 -0.000   0.026   0.000  -0.026   2.762   0.000  -0.011   0.000   0.011  -1.054   0.000   0.000   0.018   0.000  -0.018  -0.001
 -0.526  -0.016  -0.071  -0.016   0.000   0.838   0.010   0.044   0.010  -0.000   0.067  -0.017   0.010  -0.027   0.010  -0.001
 -0.016  -0.547  -0.004  -0.082  -0.011   0.010   0.853   0.003   0.080   0.004  -0.000   0.002   0.009   0.004  -0.024   0.000
 -0.071  -0.004  -1.032  -0.004   0.000   0.044   0.003   1.106   0.003   0.000   0.032  -0.005  -0.007   0.081  -0.007   0.001
 -0.016  -0.082  -0.004  -0.547   0.011   0.010   0.080   0.003   0.853  -0.004  -0.000   0.002  -0.024   0.004   0.009   0.005
  0.000  -0.011  -0.000   0.011  -1.054   0.000   0.004   0.000  -0.004   1.105   0.000   0.000  -0.015   0.000   0.015   0.001
 -0.106   0.002  -0.041   0.002   0.000   0.067  -0.000   0.032  -0.000   0.000   2.131  -0.284   0.008   0.067   0.008  -0.001
  0.027  -0.002   0.005  -0.002   0.000  -0.017   0.002  -0.005   0.002   0.000  -0.284   0.048  -0.001   0.000  -0.001   0.000
 -0.011   0.023   0.008   0.042   0.018   0.010   0.009  -0.007  -0.024  -0.015   0.008  -0.001   0.257  -0.001   0.003  -0.027
  0.046  -0.000  -0.085  -0.000   0.000  -0.027   0.004   0.081   0.004   0.000   0.067   0.000  -0.001   0.263  -0.001   0.000
 -0.011   0.042   0.008   0.023  -0.018   0.010  -0.024  -0.007   0.009   0.015   0.008  -0.001   0.003  -0.001   0.257  -0.002
  0.001  -0.011  -0.001  -0.008  -0.001  -0.001   0.000   0.001   0.005   0.001  -0.001   0.000  -0.027   0.000  -0.002   0.003
 -0.008   0.001  -0.005   0.001  -0.000   0.005  -0.001  -0.009  -0.001  -0.000  -0.008  -0.000   0.000  -0.027   0.000  -0.000
  0.001  -0.008  -0.001  -0.011   0.001  -0.001   0.005   0.001   0.000  -0.001  -0.001   0.000  -0.002   0.000  -0.027   0.000
 total augmentation occupancy for first ion, spin component:           2
 -0.131  -0.085  -0.116  -0.085   0.000   0.096   0.090   0.085   0.090   0.000  -0.030  -0.001   0.040  -0.087   0.040  -0.002
 -0.085  -0.056  -0.058  -0.024   0.153   0.090   0.036   0.021   0.016  -0.081   0.064   0.000   0.075   0.033  -0.086  -0.003
 -0.116  -0.058  -0.110  -0.058   0.000   0.085   0.021   0.063   0.021   0.000  -0.039  -0.004  -0.002  -0.028  -0.002   0.001
 -0.085  -0.024  -0.058  -0.056  -0.153   0.090   0.016   0.021   0.036   0.081   0.064   0.000  -0.086   0.033   0.075   0.003
 -0.000   0.153   0.000  -0.153  -0.224   0.000  -0.081   0.000   0.081   0.127  -0.000  -0.000   0.011  -0.000  -0.011  -0.000
  0.096   0.090   0.085   0.090  -0.000  -0.066  -0.084  -0.061  -0.084   0.000   0.024  -0.002  -0.026   0.062  -0.026   0.003
  0.090   0.036   0.021   0.016  -0.081  -0.084  -0.020   0.002  -0.009   0.033  -0.042   0.006  -0.047  -0.020   0.062   0.005
  0.085   0.021   0.063   0.021   0.000  -0.061   0.002  -0.031   0.002   0.000   0.026  -0.000  -0.002   0.031  -0.002  -0.000
  0.090   0.016   0.021   0.036   0.081  -0.084  -0.009   0.002  -0.020  -0.033  -0.042   0.006   0.062  -0.020  -0.047  -0.005
 -0.000  -0.081   0.000   0.081   0.127  -0.000   0.033   0.000  -0.033  -0.061   0.000   0.000  -0.013  -0.000   0.013   0.000
 -0.030   0.064  -0.039   0.064  -0.000   0.024  -0.042   0.026  -0.042   0.000  -0.001  -0.000   0.000   0.011   0.000   0.001
 -0.001   0.000  -0.004   0.000  -0.000  -0.002   0.006  -0.000   0.006   0.000  -0.000   0.000   0.003   0.004   0.003  -0.000
  0.040   0.075  -0.002  -0.086   0.011  -0.026  -0.047  -0.002   0.062  -0.013   0.000   0.003  -0.006  -0.007   0.005   0.000
 -0.087   0.033  -0.028   0.033   0.000   0.062  -0.020   0.031  -0.020  -0.000   0.011   0.004  -0.007   0.003  -0.007   0.001
  0.040  -0.086  -0.002   0.075  -0.011  -0.026   0.062  -0.002  -0.047   0.013   0.000   0.003   0.005  -0.007  -0.006  -0.000
 -0.002  -0.003   0.001   0.003  -0.000   0.003   0.005  -0.000  -0.005   0.000   0.001  -0.000   0.000   0.001  -0.000  -0.000
  0.003  -0.002   0.000  -0.002   0.000  -0.005   0.002  -0.001   0.002   0.000   0.002  -0.001   0.001  -0.000   0.001  -0.000
 -0.002   0.003   0.001  -0.003   0.000   0.003  -0.005  -0.000   0.005  -0.000   0.001  -0.000  -0.000   0.001   0.000   0.000


------------------------ aborting loop because EDIFF is reached ----------------------------------------





 total charge     

# of ion       s       p       d       tot
------------------------------------------
    1        0.475   0.429   8.393   9.296
    2        0.472   0.427   8.378   9.277
    3        0.472   0.428   8.379   9.279
    4        0.474   0.427   8.380   9.281
    5        0.474   0.427   8.380   9.281
    6        0.472   0.428   8.379   9.279
    7        0.472   0.427   8.378   9.277
    8        0.475   0.429   8.393   9.296
    9        0.312   0.289   4.929   5.530
   10        0.311   0.291   4.946   5.548
   11        0.338   0.347   4.943   5.627
   12        0.351   0.344   4.981   5.676
   13        0.348   0.357   4.975   5.681
   14        0.350   0.344   4.900   5.593
   15        1.238   1.703   0.289   3.230
   16        1.252   1.763   0.309   3.323
--------------------------------------------------
tot          8.285   8.862  97.330 114.477



 magnetization (x)

# of ion       s       p       d       tot
------------------------------------------
    1        0.002  -0.005  -0.052  -0.055
    2       -0.000  -0.005  -0.055  -0.060
    3       -0.002  -0.006  -0.059  -0.067
    4       -0.002  -0.008  -0.060  -0.069
    5       -0.002  -0.008  -0.060  -0.069
    6       -0.002  -0.006  -0.059  -0.067
    7       -0.000  -0.005  -0.055  -0.060
    8        0.002  -0.005  -0.052  -0.055
    9        0.041   0.024   3.569   3.634
   10        0.040   0.024   3.609   3.673
   11        0.038   0.044   3.289   3.371
   12       -0.035  -0.036  -3.463  -3.534
   13       -0.020  -0.023  -3.291  -3.334
   14       -0.035  -0.023  -3.465  -3.523
   15       -0.007  -0.122   0.006  -0.122
   16       -0.017   0.016   0.000  -0.001
--------------------------------------------------
tot          0.001  -0.143  -0.197  -0.340

    CHARGE:  cpu time    0.6967: real time    0.6974
    FORLOC:  cpu time    0.0072: real time    0.0072
    FORNL :  cpu time    4.9817: real time    4.9865
    STRESS:  cpu time   14.7709: real time   14.7852
    FORCOR:  cpu time    0.1012: real time    0.1013
    FORHAR:  cpu time    0.0161: real time    0.0161
    MIXING:  cpu time    0.0037: real time    0.0037
    OFIELD:  cpu time    0.0000: real time    0.0000

  FORCE on cell =-STRESS in cart. coord.  units (eV):
  Direction    XX          YY          ZZ          XY          YZ          ZX
  --------------------------------------------------------------------------------------
  Alpha Z   533.36563   533.36563   533.36563
  Ewald   -2955.65327 -2955.65327 -3364.56497    -0.00000     0.00000    -0.00000
  Hartree  1110.86017  1110.86017   731.45723    -0.00000    -0.00000    -0.00000
  E(xc)    -670.76208  -670.76208  -670.70368    -0.00000    -0.00000     0.00000
  Local    -515.09492  -515.09492   277.08587    -0.00000    -0.00000    -0.00000
  n-local  -149.49437  -146.47895  -147.57216    -0.07724    -0.54858     0.35393
  augment  1579.90896  1579.90896  1577.28791    -0.00000     0.00000    -0.00000
  Kinetic  1056.84140  1072.96764  1062.04620     0.16609     1.05847     1.24498
  Fock        0.00000     0.00000     0.00000     0.00000     0.00000     0.00000
  -------------------------------------------------------------------------------------
  Total      -0.45766    -0.45766    -1.59798     0.00000     0.00000     0.00000
  in kB      -3.47561    -3.47561   -12.13553     0.00000     0.00000     0.00000
  external pressure =       -6.36 kB  Pullay stress =        0.00 kB


 VOLUME and BASIS-vectors are now :
 -----------------------------------------------------------------------------
  energy-cutoff  :      550.00
  volume of cell :      210.97
      direct lattice vectors                 reciprocal lattice vectors
     5.953067090  0.000000000  0.000000000     0.167980637  0.000000000  0.000000000
     0.000000000  5.953067090  0.000000000     0.000000000  0.167980637  0.000000000
     0.000000000  0.000000000  5.953067090     0.000000000  0.000000000  0.167980637

  length of vectors
     5.953067090  5.953067090  5.953067090     0.167980637  0.167980637  0.167980637


 FORCES acting on ions
    electron-ion (+dipol)            ewald-force                    non-local-force                 convergence-correction
 -----------------------------------------------------------------------------------------------
   0.130E+02 0.130E+02 0.189E+03   -.130E+02 -.130E+02 -.186E+03   0.739E-01 0.739E-01 -.256E+01   -.844E-02 -.844E-02 -.962E-02
   -.130E+02 0.130E+02 0.189E+03   0.130E+02 -.130E+02 -.186E+03   -.739E-01 0.739E-01 -.256E+01   0.844E-02 -.844E-02 -.962E-02
   0.130E+02 -.130E+02 0.189E+03   -.130E+02 0.130E+02 -.186E+03   0.739E-01 -.739E-01 -.256E+01   -.844E-02 0.844E-02 -.962E-02
   -.130E+02 -.130E+02 0.189E+03   0.130E+02 0.130E+02 -.186E+03   -.739E-01 -.739E-01 -.256E+01   0.844E-02 0.844E-02 -.962E-02
   0.130E+02 0.130E+02 -.189E+03   -.130E+02 -.130E+02 0.186E+03   0.739E-01 0.739E-01 0.256E+01   -.844E-02 -.844E-02 0.962E-02
   -.130E+02 0.130E+02 -.189E+03   0.130E+02 -.130E+02 0.186E+03   -.739E-01 0.739E-01 0.256E+01   0.844E-02 -.844E-02 0.962E-02
   0.130E+02 -.130E+02 -.189E+03   -.130E+02 0.130E+02 0.186E+03   0.739E-01 -.739E-01 0.256E+01   -.844E-02 0.844E-02 0.962E-02
   -.130E+02 -.130E+02 -.189E+03   0.130E+02 0.130E+02 0.186E+03   -.739E-01 -.739E-01 0.256E+01   0.844E-02 0.844E-02 0.962E-02
   0.215E-12 0.202E-13 -.606E-12   -.207E-13 -.227E-13 -.166E-13   0.000E+00 0.000E+00 0.000E+00   -.436E-13 0.348E-13 0.300E-13
   -.217E-13 0.197E-12 -.584E-13   0.318E-13 -.212E-14 0.118E-13   0.000E+00 0.000E+00 0.000E+00   0.925E-14 -.256E-13 0.100E-13
   -.374E-13 -.384E-13 0.199E-12   -.282E-13 -.263E-13 0.833E-13   0.000E+00 0.000E+00 0.000E+00   0.631E-13 0.188E-13 -.102E-13
   0.197E-12 -.298E-13 0.165E-11   0.130E-12 0.433E-13 0.610E-13   0.000E+00 0.000E+00 0.000E+00   -.556E-13 0.275E-13 -.313E-13
   0.183E-12 0.211E-12 0.991E-12   0.157E-14 -.417E-13 -.193E-14   0.000E+00 0.000E+00 0.000E+00   -.419E-13 -.214E-13 -.348E-13
   -.325E-13 0.192E-12 0.197E-12   -.877E-13 -.148E-13 0.752E-13   0.000E+00 0.000E+00 0.000E+00   0.484E-13 -.124E-13 -.116E-13
   -.317E-13 -.738E-14 -.133E-13   0.219E-13 0.357E-14 0.725E-14   0.000E+00 0.000E+00 0.000E+00   0.772E-14 0.805E-14 0.777E-14
   -.132E-13 -.478E-12 0.228E-13   -.126E-13 0.516E-14 -.176E-13   0.000E+00 0.000E+00 0.000E+00   -.448E-14 -.101E-13 0.823E-14
 -----------------------------------------------------------------------------------------------
   0.278E-11 0.225E-11 -.775E-10   0.456E-15 0.901E-13 0.320E-13   0.278E-16 0.278E-16 0.266E-14   0.486E-14 0.188E-12 -.299E-12


 POSITION                                       TOTAL-FORCE (eV/Angst)
 -----------------------------------------------------------------------------------
      1.50350      1.50350      1.61112        -0.000316     -0.000316      0.005613
      4.44957      1.50350      1.61112         0.000316     -0.000316      0.005613
      1.50350      4.44957      1.61112        -0.000316      0.000316      0.005613
      4.44957      4.44957      1.61112         0.000316      0.000316      0.005613
      1.50350      1.50350      4.34195        -0.000316     -0.000316     -0.005613
      4.44957      1.50350      4.34195         0.000316     -0.000316     -0.005613
      1.50350      4.44957      4.34195        -0.000316      0.000316     -0.005613
      4.44957      4.44957      4.34195         0.000316      0.000316     -0.005613
      2.97653      0.00000      0.00000         0.000000      0.000000      0.000000
      0.00000      2.97653      0.00000         0.000000      0.000000      0.000000
      0.00000      0.00000      2.97653         0.000000      0.000000      0.000000
      2.97653      0.00000      2.97653         0.000000      0.000000      0.000000
      2.97653      2.97653      2.97653         0.000000      0.000000      0.000000
      0.00000      2.97653      2.97653         0.000000      0.000000      0.000000
      0.00000      0.00000      0.00000         0.000000      0.000000      0.000000
      2.97653      2.97653      0.00000         0.000000      0.000000      0.000000
 -----------------------------------------------------------------------------------
    total drift:                                0.000000      0.000000     -0.000000


--------------------------------------------------------------------------------------------------------



  FREE ENERGIE OF THE ION-ELECTRON SYSTEM (eV)
  ---------------------------------------------------
  free  energy   TOTEN  =      -103.36537753 eV

  energy  without entropy=     -103.36352386  energy(sigma->0) =     -103.36445070



--------------------------------------------------------------------------------------------------------


    POTLOK:  cpu time    0.1360: real time    0.1361


--------------------------------------------------------------------------------------------------------




--------------------------------------------------------------------------------------------------------


  
 reached required accuracy - stopping structural energy minimisation
     LOOP+:  cpu time  393.3867: real time  394.8988
    4ORBIT:  cpu time    0.0000: real time    0.0000



 total charge     

# of ion       s       p       d       tot
------------------------------------------
    1        0.475   0.429   8.393   9.296
    2        0.472   0.427   8.378   9.277
    3        0.472   0.428   8.379   9.279
    4        0.474   0.427   8.380   9.281
    5        0.474   0.427   8.380   9.281
    6        0.472   0.428   8.379   9.279
    7        0.472   0.427   8.378   9.277
    8        0.475   0.429   8.393   9.296
    9        0.312   0.289   4.929   5.530
   10        0.311   0.291   4.946   5.548
   11        0.338   0.347   4.943   5.627
   12        0.351   0.344   4.981   5.676
   13        0.348   0.357   4.975   5.681
   14        0.350   0.344   4.900   5.593
   15        1.238   1.703   0.289   3.230
   16        1.252   1.763   0.309   3.323
--------------------------------------------------
tot          8.285   8.862  97.330 114.477



 magnetization (x)

# of ion       s       p       d       tot
------------------------------------------
    1        0.002  -0.005  -0.052  -0.055
    2       -0.000  -0.005  -0.055  -0.060
    3       -0.002  -0.006  -0.059  -0.067
    4       -0.002  -0.008  -0.060  -0.069
    5       -0.002  -0.008  -0.060  -0.069
    6       -0.002  -0.006  -0.059  -0.067
    7       -0.000  -0.005  -0.055  -0.060
    8        0.002  -0.005  -0.052  -0.055
    9        0.041   0.024   3.569   3.634
   10        0.040   0.024   3.609   3.673
   11        0.038   0.044   3.289   3.371
   12       -0.035  -0.036  -3.463  -3.534
   13       -0.020  -0.023  -3.291  -3.334
   14       -0.035  -0.023  -3.465  -3.523
   15       -0.007  -0.122   0.006  -0.122
   16       -0.017   0.016   0.000  -0.001
--------------------------------------------------
tot          0.001  -0.143  -0.197  -0.340


 total amount of memory used by VASP MPI-rank0   103312. kBytes
=======================================================================

   base      :      30000. kBytes
   nonlr-proj:       6805. kBytes
   fftplans  :       1269. kBytes
   grid      :       6573. kBytes
   one-center:        497. kBytes
   wavefun   :      58168. kBytes

  
  
 General timing and accounting informations for this job:
 ========================================================
  
                  Total CPU time used (sec):      403.953
                            User time (sec):      382.307
                          System time (sec):       21.646
                         Elapsed time (sec):      406.018
  
                   Maximum memory used (kb):      136812.
                   Average memory used (kb):           0.
  
                          Minor page faults:      9974109
                          Major page faults:            9
                 Voluntary context switches:         1864
