 vasp.5.4.4.18Apr17-6-g9f103f2a35 (build May 21 2018 20:56:50) complex           
 executed on             LinuxGNU date 2021.10.15  15:49:47
 running on   12 total cores
 distrk:  each k-point on   12 cores,    1 groups
 distr:  one band on NCORES_PER_BAND=   1 cores,   12 groups


--------------------------------------------------------------------------------------------------------


 INCAR:
 POTCAR:    PAW_PBE Ni 02Aug2007                  
 POTCAR:    PAW_PBE Mn 06Sep2000                  
 POTCAR:    PAW_PBE In 08Apr2002                  

 ----------------------------------------------------------------------------- 
|                                                                             |
|           W    W    AA    RRRRR   N    N  II  N    N   GGGG   !!!           |
|           W    W   A  A   R    R  NN   N  II  NN   N  G    G  !!!           |
|           W    W  A    A  R    R  N N  N  II  N N  N  G       !!!           |
|           W WW W  AAAAAA  RRRRR   N  N N  II  N  N N  G  GGG   !            |
|           WW  WW  A    A  R   R   N   NN  II  N   NN  G    G                |
|           W    W  A    A  R    R  N    N  II  N    N   GGGG   !!!           |
|                                                                             |
|      For optimal performance we recommend to set                            |
|        NCORE= 4 - approx SQRT( number of cores)                             |
|      NCORE specifies how many cores store one orbital (NPAR=cpu/NCORE).     |
|      This setting can  greatly improve the performance of VASP for DFT.     |
|      The default,   NCORE=1            might be grossly inefficient         |
|      on modern multi-core architectures or massively parallel machines.     |
|      Do your own testing !!!!                                               |
|      Unfortunately you need to use the default for GW and RPA calculations. |
|      (for HF NCORE is supported but not extensively tested yet)             |
|                                                                             |
 ----------------------------------------------------------------------------- 

 POTCAR:    PAW_PBE Ni 02Aug2007                  
   VRHFIN =Ni:                                                                  
   LEXCH  = PE                                                                  
   EATOM  =  1077.6739 eV,   79.2068 Ry                                         
                                                                                
   TITEL  = PAW_PBE Ni 02Aug2007                                                
   LULTRA =        F    use ultrasoft PP ?                                      
   IUNSCR =        1    unscreen: 0-lin 1-nonlin 2-no                           
   RPACOR =    2.000    partial core radius                                     
   POMASS =   58.690; ZVAL   =   10.000    mass and valenz                      
   RCORE  =    2.300    outmost cutoff radius                                   
   RWIGS  =    2.430; RWIGS  =    1.286    wigner-seitz radius (au A)           
   ENMAX  =  269.532; ENMIN  =  202.149 eV                                      
   RCLOC  =    1.201    cutoff for local pot                                    
   LCOR   =        T    correct aug charges                                     
   LPAW   =        T    paw PP                                                  
   EAUG   =  544.565                                                            
   DEXC   =    0.000                                                            
   RMAX   =    2.357    core radius for proj-oper                               
   RAUG   =    1.300    factor for augmentation sphere                          
   RDEP   =    2.390    radius for radial grids                                 
   RDEPT  =    1.838    core radius for aug-charge                              
                                                                                
   Atomic configuration                                                         
    9 entries                                                                   
     n  l   j            E        occ.                                          
     1  0  0.50     -8206.4253   2.0000                                         
     2  0  0.50      -976.1748   2.0000                                         
     2  1  1.50      -839.0571   6.0000                                         
     3  0  0.50      -105.9991   2.0000                                         
     3  1  1.50       -66.4603   6.0000                                         
     3  2  2.50        -4.6458   9.0000                                         
     4  0  0.50        -4.4926   1.0000                                         
     4  1  1.50        -4.0817   0.0000                                         
     4  3  2.50        -1.3606   0.0000                                         
   Description                                                                  
     l       E           TYP  RCUT    TYP  RCUT                                 
     2     -4.6457903     23  2.300                                             
     2     -6.0063729     23  2.300                                             
     0     -4.4925590     23  2.300                                             
     0      5.0102601     23  2.300                                             
     1     -2.7211652     23  2.300                                             
     1     16.5183231     23  2.300                                             
  local pseudopotential read in
  partial core-charges read in
  partial kinetic energy density read in
  atomic valenz-charges read in
  non local Contribution for L=           2  read in
    real space projection operators read in
  non local Contribution for L=           2  read in
    real space projection operators read in
  non local Contribution for L=           0  read in
    real space projection operators read in
  non local Contribution for L=           0  read in
    real space projection operators read in
  non local Contribution for L=           1  read in
    real space projection operators read in
  non local Contribution for L=           1  read in
    real space projection operators read in
    PAW grid and wavefunctions read in

   number of l-projection  operators is LMAX  =           6
   number of lm-projection operators is LMMAX =          18

 POTCAR:    PAW_PBE Mn 06Sep2000                  
   VRHFIN =Mn: d6 s1                                                            
   LEXCH  = PE                                                                  
   EATOM  =   416.7541 eV,   30.6306 Ry                                         
                                                                                
   TITEL  = PAW_PBE Mn 06Sep2000                                                
   LULTRA =        F    use ultrasoft PP ?                                      
   IUNSCR =        1    unscreen: 0-lin 1-nonlin 2-no                           
   RPACOR =    2.000    partial core radius                                     
   POMASS =   54.938; ZVAL   =    7.000    mass and valenz                      
   RCORE  =    2.300    outmost cutoff radius                                   
   RWIGS  =    2.500; RWIGS  =    1.323    wigner-seitz radius (au A)           
   ENMAX  =  269.864; ENMIN  =  202.398 eV                                      
   RCLOC  =    1.725    cutoff for local pot                                    
   LCOR   =        T    correct aug charges                                     
   LPAW   =        T    paw PP                                                  
   EAUG   =  500.711                                                            
   DEXC   =    0.000                                                            
   RMAX   =    2.343    core radius for proj-oper                               
   RAUG   =    1.300    factor for augmentation sphere                          
   RDEP   =    2.338    radius for radial grids                                 
   RDEPT  =    1.911    core radius for aug-charge                              
                                                                                
   Atomic configuration                                                         
    9 entries                                                                   
     n  l   j            E        occ.                                          
     1  0  0.50     -6424.8288   2.0000                                         
     2  0  0.50      -739.1154   2.0000                                         
     2  1  1.50      -625.3949   6.0000                                         
     3  0  0.50       -81.6100   2.0000                                         
     3  1  1.50       -50.4667   6.0000                                         
     3  2  2.50        -3.3745   6.0000                                         
     4  0  0.50        -4.1331   1.0000                                         
     4  1  0.50        -4.0817   0.0000                                         
     4  3  2.50        -1.3606   0.0000                                         
   Description                                                                  
     l       E           TYP  RCUT    TYP  RCUT                                 
     2     -3.3744664     23  2.300                                             
     2     -4.7350490     23  2.300                                             
     0     -4.1331408     23  2.300                                             
     0      7.6656614     23  2.300                                             
     1     -2.7211652     23  2.300                                             
     1     20.4087390     23  2.300                                             
  local pseudopotential read in
  partial core-charges read in
  partial kinetic energy density read in
  atomic valenz-charges read in
  non local Contribution for L=           2  read in
    real space projection operators read in
  non local Contribution for L=           2  read in
    real space projection operators read in
  non local Contribution for L=           0  read in
    real space projection operators read in
  non local Contribution for L=           0  read in
    real space projection operators read in
  non local Contribution for L=           1  read in
    real space projection operators read in
  non local Contribution for L=           1  read in
    real space projection operators read in
    PAW grid and wavefunctions read in

   number of l-projection  operators is LMAX  =           6
   number of lm-projection operators is LMMAX =          18

 POTCAR:    PAW_PBE In 08Apr2002                  
   VRHFIN =In: s2p1                                                             
   LEXCH  = PE                                                                  
   EATOM  =    53.7908 eV,    3.9535 Ry                                         
                                                                                
   TITEL  = PAW_PBE In 08Apr2002                                                
   LULTRA =        F    use ultrasoft PP ?                                      
   IUNSCR =        1    unscreen: 0-lin 1-nonlin 2-no                           
   RPACOR =    2.400    partial core radius                                     
   POMASS =  114.820; ZVAL   =    3.000    mass and valenz                      
   RCORE  =    3.100    outmost cutoff radius                                   
   RWIGS  =    3.170; RWIGS  =    1.677    wigner-seitz radius (au A)           
   ENMAX  =   95.934; ENMIN  =   71.951 eV                                      
   ICORE  =        3    local potential                                         
   LCOR   =        T    correct aug charges                                     
   LPAW   =        T    paw PP                                                  
   EAUG   =  237.125                                                            
   DEXC   =    0.000                                                            
   RMAX   =    3.168    core radius for proj-oper                               
   RAUG   =    1.300    factor for augmentation sphere                          
   RDEP   =    3.187    radius for radial grids                                 
   RDEPT  =    2.711    core radius for aug-charge                              
                                                                                
   Atomic configuration                                                         
   13 entries                                                                   
     n  l   j            E        occ.                                          
     1  0  0.50    -27747.9169   2.0000                                         
     2  0  0.50     -4154.4438   2.0000                                         
     2  1  1.50     -3728.4305   6.0000                                         
     3  0  0.50      -788.3680   2.0000                                         
     3  1  1.50      -648.9215   6.0000                                         
     3  2  2.50      -432.5893  10.0000                                         
     4  0  0.50      -119.6363   2.0000                                         
     4  1  1.50       -78.1086   6.0000                                         
     4  2  2.50       -18.6227  10.0000                                         
     5  0  0.50        -8.2107   2.0000                                         
     5  1  0.50        -2.5185   1.0000                                         
     5  2  2.50        -1.3606   0.0000                                         
     4  3  2.50        -2.7212   0.0000                                         
   Description                                                                  
     l       E           TYP  RCUT    TYP  RCUT                                 
     0     -8.2107306     23  3.100                                             
     0     -6.1485975     23  3.100                                             
     1     -2.5184867     23  3.100                                             
     1      3.2427302     23  3.100                                             
     2     -1.3605826     23  3.100                                             
     3     -1.3605826     23  3.100                                             
  local pseudopotential read in
  partial core-charges read in
  partial kinetic energy density read in
  atomic valenz-charges read in
  non local Contribution for L=           0  read in
    real space projection operators read in
  non local Contribution for L=           0  read in
    real space projection operators read in
  non local Contribution for L=           1  read in
    real space projection operators read in
  non local Contribution for L=           1  read in
    real space projection operators read in
  non local Contribution for L=           2  read in
    real space projection operators read in
    PAW grid and wavefunctions read in

   number of l-projection  operators is LMAX  =           5
   number of lm-projection operators is LMMAX =          13

 Optimization of the real space projectors (new method)

 maximal supplied QI-value         = 16.25
 optimisation between [QCUT,QGAM] = [ 11.86, 23.89] = [ 39.41,159.82] Ry 
 Optimized for a Real-space Cutoff    1.33 Angstroem

   l    n(q)    QCUT    max X(q) W(low)/X(q) W(high)/X(q)  e(spline) 
   2      9    11.864    60.317    0.21E-03    0.51E-03    0.25E-06
   2      9    11.864    55.921    0.21E-03    0.51E-03    0.26E-06
   0      9    11.864    51.690    0.22E-03    0.30E-04    0.17E-06
   0      9    11.864    30.015    0.20E-03    0.28E-04    0.15E-06
   1      9    11.864    18.849    0.76E-04    0.33E-03    0.17E-06
   1      9    11.864    14.624    0.60E-04    0.28E-03    0.15E-06
 Optimization of the real space projectors (new method)

 maximal supplied QI-value         = 16.25
 optimisation between [QCUT,QGAM] = [ 11.86, 23.89] = [ 39.41,159.82] Ry 
 Optimized for a Real-space Cutoff    1.36 Angstroem

   l    n(q)    QCUT    max X(q) W(low)/X(q) W(high)/X(q)  e(spline) 
   2      9    11.864   110.144    0.49E-03    0.50E-03    0.21E-06
   2      9    11.864   103.200    0.49E-03    0.51E-03    0.22E-06
   0     10    11.864    68.437    0.12E-03    0.41E-04    0.21E-06
   0     10    11.864    33.971    0.11E-03    0.36E-04    0.19E-06
   1      9    11.864    17.065    0.24E-03    0.26E-03    0.93E-07
   1      9    11.864    12.540    0.19E-03    0.20E-03    0.80E-07
 Optimization of the real space projectors (new method)

 maximal supplied QI-value         = 12.09
 optimisation between [QCUT,QGAM] = [ 11.97, 23.95] = [ 40.14,160.58] Ry 
 Optimized for a Real-space Cutoff    1.63 Angstroem

   l    n(q)    QCUT    max X(q) W(low)/X(q) W(high)/X(q)  e(spline) 
   0     12    11.973   106.980    0.33E-03    0.16E-03    0.25E-05
   0     12    11.973    81.086    0.37E-03    0.18E-03    0.28E-05
   1     11    11.973    53.097    0.22E-03    0.42E-03    0.40E-05
   1     11    11.973    32.621    0.20E-03    0.40E-03    0.37E-05
   2     11    11.973     8.820    0.30E-03    0.17E-03    0.41E-06
  PAW_PBE Ni 02Aug2007                  :
 energy of atom  1       EATOM=-1077.6739
 kinetic energy error for atom=    0.0027 (will be added to EATOM!!)
  PAW_PBE Mn 06Sep2000                  :
 energy of atom  2       EATOM= -416.7541
 kinetic energy error for atom=    0.0022 (will be added to EATOM!!)
  PAW_PBE In 08Apr2002                  :
 energy of atom  3       EATOM=  -53.7908
 kinetic energy error for atom=    0.0000 (will be added to EATOM!!)


 POSCAR: Ni2MnIn                                 
  positions in direct lattice
  velocities in cartesian coordinates
 exchange correlation table for  LEXCH =        8
   RHO(1)=    0.500       N(1)  =     2000
   RHO(2)=  100.500       N(2)  =     4000



--------------------------------------------------------------------------------------------------------


 ion  position               nearest neighbor table
   1  0.250  0.250  0.250-   9 2.58  10 2.58  11 2.58  12 2.58  13 2.58  14 2.58  15 2.58  16 2.58
                             5 2.98   2 2.98   3 2.98   5 2.98   3 2.98   2 2.98
   2  0.750  0.250  0.250-   9 2.58  10 2.58  11 2.58  12 2.58  13 2.58  14 2.58  15 2.58  16 2.58
                             6 2.98   1 2.98   4 2.98   6 2.98   4 2.98   1 2.98
   3  0.250  0.750  0.250-   9 2.58  10 2.58  11 2.58  12 2.58  13 2.58  14 2.58  15 2.58  16 2.58
                             7 2.98   1 2.98   4 2.98   7 2.98   1 2.98   4 2.98
   4  0.750  0.750  0.250-   9 2.58  10 2.58  11 2.58  12 2.58  13 2.58  14 2.58  15 2.58  16 2.58
                             8 2.98   2 2.98   3 2.98   8 2.98   2 2.98   3 2.98
   5  0.250  0.250  0.750-   9 2.58  10 2.58  11 2.58  12 2.58  13 2.58  14 2.58  15 2.58  16 2.58
                             7 2.98   1 2.98   6 2.98   1 2.98   7 2.98   6 2.98
   6  0.750  0.250  0.750-   9 2.58  10 2.58  11 2.58  12 2.58  13 2.58  14 2.58  15 2.58  16 2.58
                             8 2.98   2 2.98   5 2.98   2 2.98   8 2.98   5 2.98
   7  0.250  0.750  0.750-   9 2.58  10 2.58  11 2.58  12 2.58  13 2.58  14 2.58  15 2.58  16 2.58
                             8 2.98   3 2.98   5 2.98   3 2.98   5 2.98   8 2.98
   8  0.750  0.750  0.750-   9 2.58  10 2.58  11 2.58  12 2.58  13 2.58  14 2.58  15 2.58  16 2.58
                             7 2.98   4 2.98   6 2.98   4 2.98   6 2.98   7 2.98
   9  0.500  0.000  0.000-   1 2.58   2 2.58   3 2.58   4 2.58   5 2.58   6 2.58   7 2.58   8 2.58
                            10 2.98  13 2.98  15 2.98  13 2.98  10 2.98  15 2.98
  10  0.500  0.500  0.000-   1 2.58   2 2.58   3 2.58   4 2.58   5 2.58   6 2.58   7 2.58   8 2.58
                             9 2.98  11 2.98  16 2.98  16 2.98   9 2.98  11 2.98
  11  0.000  0.500  0.000-   1 2.58   2 2.58   3 2.58   4 2.58   5 2.58   6 2.58   7 2.58   8 2.58
                            10 2.98  14 2.98  15 2.98  14 2.98  15 2.98  10 2.98
  12  0.000  0.000  0.500-   1 2.58   2 2.58   3 2.58   4 2.58   5 2.58   6 2.58   7 2.58   8 2.58
                            13 2.98  14 2.98  15 2.98  15 2.98  14 2.98  13 2.98
  13  0.500  0.000  0.500-   1 2.58   2 2.58   3 2.58   4 2.58   5 2.58   6 2.58   7 2.58   8 2.58
                             9 2.98  12 2.98  16 2.98   9 2.98  16 2.98  12 2.98
  14  0.000  0.500  0.500-   1 2.58   2 2.58   3 2.58   4 2.58   5 2.58   6 2.58   7 2.58   8 2.58
                            11 2.98  12 2.98  16 2.98  11 2.98  12 2.98  16 2.98
  15  0.000  0.000  0.000-   1 2.58   2 2.58   3 2.58   4 2.58   5 2.58   6 2.58   7 2.58   8 2.58
                             9 2.98  11 2.98  12 2.98  12 2.98  11 2.98   9 2.98
  16  0.500  0.500  0.500-   1 2.58   2 2.58   3 2.58   4 2.58   5 2.58   6 2.58   7 2.58   8 2.58
                            10 2.98  13 2.98  14 2.98  10 2.98  13 2.98  14 2.98

  LATTYP: Found a simple cubic cell.
 ALAT       =     5.9602056223
  
  Lattice vectors:
  
 A1 = (   5.9602056223,   0.0000000000,   0.0000000000)
 A2 = (   0.0000000000,   5.9602056223,   0.0000000000)
 A3 = (   0.0000000000,   0.0000000000,   5.9602056223)


Analysis of symmetry for initial positions (statically):
=====================================================================
 Subroutine PRICEL returns following result:
 
  LATTYP: Found a body centered cubic cell.
 ALAT       =     5.9602056223
  
  Lattice vectors:
  
 A1 = (   2.9801028111,   2.9801028111,   2.9801028111)
 A2 = (   2.9801028111,  -2.9801028111,  -2.9801028111)
 A3 = (  -2.9801028111,   2.9801028111,  -2.9801028111)
 
   2 primitive cells build up your supercell.
 

 Routine SETGRP: Setting up the symmetry group for a 
 simple cubic supercell.


 Subroutine GETGRP returns: Found 48 space group operations
 (whereof 48 operations were pure point group operations)
 out of a pool of 48 trial point group operations.


The static configuration has the point symmetry O_h .


Analysis of symmetry for dynamics (positions and initial velocities):
=====================================================================
 Subroutine PRICEL returns following result:
 
  LATTYP: Found a body centered cubic cell.
 ALAT       =     5.9602056223
  
  Lattice vectors:
  
 A1 = (   2.9801028111,   2.9801028111,   2.9801028111)
 A2 = (   2.9801028111,  -2.9801028111,  -2.9801028111)
 A3 = (  -2.9801028111,   2.9801028111,  -2.9801028111)
 
   2 primitive cells build up your supercell.
 

 Routine SETGRP: Setting up the symmetry group for a 
 simple cubic supercell.


 Subroutine GETGRP returns: Found 48 space group operations
 (whereof 48 operations were pure point group operations)
 out of a pool of 48 trial point group operations.


The dynamic configuration has the point symmetry O_h .


Analysis of structural, dynamic, and magnetic symmetry:
=====================================================================
 Subroutine PRICEL returns following result:
 
  LATTYP: Found a body centered cubic cell.
 ALAT       =     5.9602056223
  
  Lattice vectors:
  
 A1 = (   2.9801028111,   2.9801028111,   2.9801028111)
 A2 = (   2.9801028111,  -2.9801028111,  -2.9801028111)
 A3 = (  -2.9801028111,   2.9801028111,  -2.9801028111)
 
   2 primitive cells build up your supercell.
 

 Routine SETGRP: Setting up the symmetry group for a 
 simple cubic supercell.


 Subroutine GETGRP returns: Found 16 space group operations
 (whereof 16 operations were pure point group operations)
 out of a pool of 48 trial point group operations.


The magnetic configuration has the point symmetry D_4h.


 Subroutine INISYM returns: Found 16 space group operations
 (whereof 16 operations are pure point group operations),
 and found     2 'primitive' translations



 KPOINTS: k-points                                

Automatic generation of k-mesh.
Space group operators:
 irot       det(A)        alpha          n_x          n_y          n_z        tau_x        tau_y        tau_z
    1     1.000000     0.000000     1.000000     0.000000     0.000000     0.000000     0.000000    -0.000000
    2    -1.000000     0.000000     1.000000     0.000000     0.000000     0.000000     0.000000    -0.000000
    3     1.000000    90.000000     0.000000     0.000000    -1.000000     0.000000     0.000000    -0.000000
    4    -1.000000    90.000000     0.000000     0.000000    -1.000000     0.000000     0.000000    -0.000000
    5     1.000000   180.000000     0.000000     0.000000     1.000000     0.000000     0.000000    -0.000000
    6    -1.000000   180.000000     0.000000     0.000000     1.000000     0.000000     0.000000    -0.000000
    7     1.000000    90.000000     0.000000     0.000000     1.000000     0.000000     0.000000    -0.000000
    8    -1.000000    90.000000     0.000000     0.000000     1.000000     0.000000     0.000000    -0.000000
    9     1.000000   180.000000     1.000000     0.000000     0.000000     0.000000     0.000000    -0.000000
   10    -1.000000   180.000000     1.000000     0.000000     0.000000     0.000000     0.000000    -0.000000
   11     1.000000   180.000000     0.707107     0.707107     0.000000     0.000000     0.000000    -0.000000
   12    -1.000000   180.000000     0.707107     0.707107     0.000000     0.000000     0.000000    -0.000000
   13     1.000000   180.000000     0.000000     1.000000     0.000000     0.000000     0.000000    -0.000000
   14    -1.000000   180.000000     0.000000     1.000000     0.000000     0.000000     0.000000    -0.000000
   15     1.000000   180.000000     0.707107    -0.707107     0.000000     0.000000     0.000000    -0.000000
   16    -1.000000   180.000000     0.707107    -0.707107     0.000000     0.000000     0.000000    -0.000000
 
 Subroutine IBZKPT returns following result:
 ===========================================
 
 Found     40 irreducible k-points:
 
 Following reciprocal coordinates:
            Coordinates               Weight
  0.000000  0.000000  0.000000      1.000000
  0.142857  0.000000  0.000000      4.000000
  0.285714  0.000000  0.000000      4.000000
  0.428571  0.000000  0.000000      4.000000
  0.142857  0.142857  0.000000      4.000000
  0.285714  0.142857  0.000000      8.000000
  0.428571  0.142857  0.000000      8.000000
  0.285714  0.285714  0.000000      4.000000
  0.428571  0.285714  0.000000      8.000000
  0.428571  0.428571  0.000000      4.000000
  0.000000  0.000000  0.142857      2.000000
  0.142857  0.000000  0.142857      8.000000
  0.285714  0.000000  0.142857      8.000000
  0.428571  0.000000  0.142857      8.000000
  0.142857  0.142857  0.142857      8.000000
  0.285714  0.142857  0.142857     16.000000
  0.428571  0.142857  0.142857     16.000000
  0.285714  0.285714  0.142857      8.000000
  0.428571  0.285714  0.142857     16.000000
  0.428571  0.428571  0.142857      8.000000
  0.000000  0.000000  0.285714      2.000000
  0.142857  0.000000  0.285714      8.000000
  0.285714  0.000000  0.285714      8.000000
  0.428571  0.000000  0.285714      8.000000
  0.142857  0.142857  0.285714      8.000000
  0.285714  0.142857  0.285714     16.000000
  0.428571  0.142857  0.285714     16.000000
  0.285714  0.285714  0.285714      8.000000
  0.428571  0.285714  0.285714     16.000000
  0.428571  0.428571  0.285714      8.000000
  0.000000  0.000000  0.428571      2.000000
  0.142857  0.000000  0.428571      8.000000
  0.285714  0.000000  0.428571      8.000000
  0.428571  0.000000  0.428571      8.000000
  0.142857  0.142857  0.428571      8.000000
  0.285714  0.142857  0.428571     16.000000
  0.428571  0.142857  0.428571     16.000000
  0.285714  0.285714  0.428571      8.000000
  0.428571  0.285714  0.428571     16.000000
  0.428571  0.428571  0.428571      8.000000
 
 Following cartesian coordinates:
            Coordinates               Weight
  0.000000  0.000000  0.000000      1.000000
  0.138059  0.000000  0.000000      4.000000
  0.276117  0.000000  0.000000      4.000000
  0.414176  0.000000  0.000000      4.000000
  0.138059  0.138059  0.000000      4.000000
  0.276117  0.138059  0.000000      8.000000
  0.414176  0.138059  0.000000      8.000000
  0.276117  0.276117  0.000000      4.000000
  0.414176  0.276117  0.000000      8.000000
  0.414176  0.414176  0.000000      4.000000
  0.000000  0.000000  0.138059      2.000000
  0.138059  0.000000  0.138059      8.000000
  0.276117  0.000000  0.138059      8.000000
  0.414176  0.000000  0.138059      8.000000
  0.138059  0.138059  0.138059      8.000000
  0.276117  0.138059  0.138059     16.000000
  0.414176  0.138059  0.138059     16.000000
  0.276117  0.276117  0.138059      8.000000
  0.414176  0.276117  0.138059     16.000000
  0.414176  0.414176  0.138059      8.000000
  0.000000  0.000000  0.276117      2.000000
  0.138059  0.000000  0.276117      8.000000
  0.276117  0.000000  0.276117      8.000000
  0.414176  0.000000  0.276117      8.000000
  0.138059  0.138059  0.276117      8.000000
  0.276117  0.138059  0.276117     16.000000
  0.414176  0.138059  0.276117     16.000000
  0.276117  0.276117  0.276117      8.000000
  0.414176  0.276117  0.276117     16.000000
  0.414176  0.414176  0.276117      8.000000
  0.000000  0.000000  0.414176      2.000000
  0.138059  0.000000  0.414176      8.000000
  0.276117  0.000000  0.414176      8.000000
  0.414176  0.000000  0.414176      8.000000
  0.138059  0.138059  0.414176      8.000000
  0.276117  0.138059  0.414176     16.000000
  0.414176  0.138059  0.414176     16.000000
  0.276117  0.276117  0.414176      8.000000
  0.414176  0.276117  0.414176     16.000000
  0.414176  0.414176  0.414176      8.000000
 


--------------------------------------------------------------------------------------------------------




 Dimension of arrays:
   k-points           NKPTS =     40   k-points in BZ     NKDIM =     40   number of bands    NBANDS=     84
   number of dos      NEDOS =    301   number of ions     NIONS =     16
   non local maximal  LDIM  =      6   non local SUM 2l+1 LMDIM =     18
   total plane-waves  NPLWV =  46656
   max r-space proj   IRMAX =   4045   max aug-charges    IRDMAX=  25055
   dimension x,y,z NGX =    36 NGY =   36 NGZ =   36
   dimension x,y,z NGXF=    72 NGYF=   72 NGZF=   72
   support grid    NGXF=    72 NGYF=   72 NGZF=   72
   ions per type =               8   6   2
   NGX,Y,Z   is equivalent  to a cutoff of  10.04, 10.04, 10.04 a.u.
   NGXF,Y,Z  is equivalent  to a cutoff of  20.08, 20.08, 20.08 a.u.

 SYSTEM =  Testrun for NiMnIn                      
 POSCAR =  Ni2MnIn                                 

 Startparameter for this run:
   NWRITE =      2    write-flag & timer
   PREC   = normal    normal or accurate (medium, high low for compatibility)
   ISTART =      0    job   : 0-new  1-cont  2-samecut
   ICHARG =      2    charge: 1-file 2-atom 10-const
   ISPIN  =      2    spin polarized calculation?
   LNONCOLLINEAR =      F non collinear calculations
   LSORBIT =      F    spin-orbit coupling
   INIWAV =      1    electr: 0-lowe 1-rand  2-diag
   LASPH  =      F    aspherical Exc in radial PAW
   METAGGA=      F    non-selfconsistent MetaGGA calc.

 Electronic Relaxation 1
   ENCUT  =  550.0 eV  40.42 Ry    6.36 a.u.  11.40 11.40 11.40*2*pi/ulx,y,z
   ENINI  =  550.0     initial cutoff
   ENAUG  =  544.6 eV  augmentation charge cutoff
   NELM   =     60;   NELMIN=  2; NELMDL= -5     # of ELM steps 
   EDIFF  = 0.1E-04   stopping-criterion for ELM
   LREAL  =      T    real-space projection
   NLSPLINE    = F    spline interpolate recip. space projectors
   LCOMPAT=      F    compatible to vasp.4.4
   GGA_COMPAT  = T    GGA compatible to vasp.4.4-vasp.4.6
   LMAXPAW     = -100 max onsite density
   LMAXMIX     =    2 max onsite mixed and CHGCAR
   VOSKOWN=      0    Vosko Wilk Nusair interpolation
   ROPT   =   -0.00050  -0.00050  -0.00050
 Ionic relaxation
   EDIFFG = -.1E-01   stopping-criterion for IOM
   NSW    =   1000    number of steps for IOM
   NBLOCK =      1;   KBLOCK =   1000    inner block; outer block 
   IBRION =      2    ionic relax: 0-MD 1-quasi-New 2-CG
   NFREE  =      1    steps in history (QN), initial steepest desc. (CG)
   ISIF   =      2    stress and relaxation
   IWAVPR =     11    prediction:  0-non 1-charg 2-wave 3-comb
   ISYM   =      2    0-nonsym 1-usesym 2-fastsym
   LCORR  =      T    Harris-Foulkes like correction to forces

   POTIM  = 0.5000    time-step for ionic-motion
   TEIN   =    0.0    initial temperature
   TEBEG  =    0.0;   TEEND  =   0.0 temperature during run
   SMASS  =  -3.00    Nose mass-parameter (am)
   estimated Nose-frequenzy (Omega)   =  0.10E-29 period in steps =****** mass=  -0.812E-27a.u.
   SCALEE = 1.0000    scale energy and forces
   NPACO  =    256;   APACO  = 16.0  distance and # of slots for P.C.
   PSTRESS=    0.0 pullay stress

  Mass of Ions in am
   POMASS =  58.69 54.94114.82
  Ionic Valenz
   ZVAL   =  10.00  7.00  3.00
  Atomic Wigner-Seitz radii
   RWIGS  =  -1.00 -1.00 -1.00
  virtual crystal weights 
   VCA    =   1.00  1.00  1.00
   NELECT =     128.0000    total number of electrons
   NUPDOWN=      -1.0000    fix difference up-down

 DOS related values:
   EMIN   =  10.00;   EMAX   =-10.00  energy-range for DOS
   EFERMI =   0.00
   ISMEAR =     0;   SIGMA  =   0.02  broadening in eV -4-tet -1-fermi 0-gaus

 Electronic relaxation 2 (details)
   IALGO  =     68    algorithm
   LDIAG  =      T    sub-space diagonalisation (order eigenvalues)
   LSUBROT=      F    optimize rotation matrix (better conditioning)
   TURBO    =      0    0=normal 1=particle mesh
   IRESTART =      0    0=no restart 2=restart with 2 vectors
   NREBOOT  =      0    no. of reboots
   NMIN     =      0    reboot dimension
   EREF     =   0.00    reference energy to select bands
   IMIX   =      4    mixing-type and parameters
     AMIX     =   0.40;   BMIX     =  1.00
     AMIX_MAG =   1.60;   BMIX_MAG =  1.00
     AMIN     =   0.10
     WC   =   100.;   INIMIX=   1;  MIXPRE=   1;  MAXMIX= -45

 Intra band minimization:
   WEIMIN = 0.0010     energy-eigenvalue tresh-hold
   EBREAK =  0.30E-07  absolut break condition
   DEPER  =   0.30     relativ break condition  

   TIME   =   0.40     timestep for ELM

  volume/ion in A,a.u.               =      13.23        89.30
  Fermi-wavevector in a.u.,A,eV,Ry     =   1.384258  2.615868 26.071063  1.916169
  Thomas-Fermi vector in A             =   2.508779

 Write flags
   LWAVE        =      F    write WAVECAR
   LDOWNSAMPLE  =      F    k-point downsampling of WAVECAR
   LCHARG       =      T    write CHGCAR
   LVTOT        =      F    write LOCPOT, total local potential
   LVHAR        =      F    write LOCPOT, Hartree potential only
   LELF         =      F    write electronic localiz. function (ELF)
   LORBIT       =     11    0 simple, 1 ext, 2 COOP (PROOUT), +10 PAW based schemes


 Dipole corrections
   LMONO  =      F    monopole corrections only (constant potential shift)
   LDIPOL =      F    correct potential (dipole corrections)
   IDIPOL =      0    1-x, 2-y, 3-z, 4-all directions 
   EPSILON=  1.0000000 bulk dielectric constant

 Exchange correlation treatment:
   GGA     =    --    GGA type
   LEXCH   =     8    internal setting for exchange type
   VOSKOWN=      0    Vosko Wilk Nusair interpolation
   LHFCALC =     F    Hartree Fock is set to
   LHFONE  =     F    Hartree Fock one center treatment
   AEXX    =    0.0000 exact exchange contribution

 Linear response parameters
   LEPSILON=     F    determine dielectric tensor
   LRPA    =     F    only Hartree local field effects (RPA)
   LNABLA  =     F    use nabla operator in PAW spheres
   LVEL    =     F    velocity operator in full k-point grid
   LINTERFAST=   F  fast interpolation
   KINTER  =     0    interpolate to denser k-point grid
   CSHIFT  =0.1000    complex shift for real part using Kramers Kronig
   OMEGAMAX=  -1.0    maximum frequency
   DEG_THRESHOLD= 0.2000000E-02 threshold for treating states as degnerate
   RTIME   =   -0.100 relaxation time in fs
  (WPLASMAI=    0.000 imaginary part of plasma frequency in eV, 0.658/RTIME)
   DFIELD  = 0.0000000 0.0000000 0.0000000 field for delta impulse in time

 Orbital magnetization related:
   ORBITALMAG=     F  switch on orbital magnetization
   LCHIMAG   =     F  perturbation theory with respect to B field
   DQ        =  0.001000  dq finite difference perturbation B field
   LLRAUG    =     F  two centre corrections for induced B field



--------------------------------------------------------------------------------------------------------


 conjugate gradient relaxation of ions
 charge density and potential will be updated during run
 spin polarized calculation
 RMM-DIIS sequential band-by-band and
  variant of blocked Davidson during initial phase
 perform sub-space diagonalisation
    before iterative eigenvector-optimisation
 modified Broyden-mixing scheme, WC =      100.0
 initial mixing is a Kerker type mixing with AMIX =  0.4000 and BMIX =      1.0000
 Hartree-type preconditioning will be used
 using additional bands           20
 real space projection scheme for non local part
 use partial core corrections
 calculate Harris-corrections to forces   (improved forces if not selfconsistent)
 use gradient corrections 
 use of overlap-Matrix (Vanderbilt PP)
 Gauss-broadening in eV      SIGMA  =   0.02


--------------------------------------------------------------------------------------------------------


  energy-cutoff  :      550.00
  volume of cell :      211.73
      direct lattice vectors                 reciprocal lattice vectors
     5.960205622  0.000000000  0.000000000     0.167779446  0.000000000  0.000000000
     0.000000000  5.960205622  0.000000000     0.000000000  0.167779446  0.000000000
     0.000000000  0.000000000  5.960205622     0.000000000  0.000000000  0.167779446

  length of vectors
     5.960205622  5.960205622  5.960205622     0.167779446  0.167779446  0.167779446



 k-points in units of 2pi/SCALE and weight: k-points                                
   0.00000000  0.00000000  0.00000000       0.003
   0.13805852  0.00000000  0.00000000       0.012
   0.27611703  0.00000000  0.00000000       0.012
   0.41417555  0.00000000  0.00000000       0.012
   0.13805852  0.13805852  0.00000000       0.012
   0.27611703  0.13805852  0.00000000       0.023
   0.41417555  0.13805852  0.00000000       0.023
   0.27611703  0.27611703  0.00000000       0.012
   0.41417555  0.27611703  0.00000000       0.023
   0.41417555  0.41417555  0.00000000       0.012
   0.00000000  0.00000000  0.13805852       0.006
   0.13805852  0.00000000  0.13805852       0.023
   0.27611703  0.00000000  0.13805852       0.023
   0.41417555  0.00000000  0.13805852       0.023
   0.13805852  0.13805852  0.13805852       0.023
   0.27611703  0.13805852  0.13805852       0.047
   0.41417555  0.13805852  0.13805852       0.047
   0.27611703  0.27611703  0.13805852       0.023
   0.41417555  0.27611703  0.13805852       0.047
   0.41417555  0.41417555  0.13805852       0.023
   0.00000000  0.00000000  0.27611703       0.006
   0.13805852  0.00000000  0.27611703       0.023
   0.27611703  0.00000000  0.27611703       0.023
   0.41417555  0.00000000  0.27611703       0.023
   0.13805852  0.13805852  0.27611703       0.023
   0.27611703  0.13805852  0.27611703       0.047
   0.41417555  0.13805852  0.27611703       0.047
   0.27611703  0.27611703  0.27611703       0.023
   0.41417555  0.27611703  0.27611703       0.047
   0.41417555  0.41417555  0.27611703       0.023
   0.00000000  0.00000000  0.41417555       0.006
   0.13805852  0.00000000  0.41417555       0.023
   0.27611703  0.00000000  0.41417555       0.023
   0.41417555  0.00000000  0.41417555       0.023
   0.13805852  0.13805852  0.41417555       0.023
   0.27611703  0.13805852  0.41417555       0.047
   0.41417555  0.13805852  0.41417555       0.047
   0.27611703  0.27611703  0.41417555       0.023
   0.41417555  0.27611703  0.41417555       0.047
   0.41417555  0.41417555  0.41417555       0.023

 k-points in reciprocal lattice and weights: k-points                                
   0.00000000  0.00000000  0.00000000       0.003
   0.14285714  0.00000000  0.00000000       0.012
   0.28571429  0.00000000  0.00000000       0.012
   0.42857143  0.00000000  0.00000000       0.012
   0.14285714  0.14285714  0.00000000       0.012
   0.28571429  0.14285714  0.00000000       0.023
   0.42857143  0.14285714  0.00000000       0.023
   0.28571429  0.28571429  0.00000000       0.012
   0.42857143  0.28571429  0.00000000       0.023
   0.42857143  0.42857143  0.00000000       0.012
   0.00000000  0.00000000  0.14285714       0.006
   0.14285714  0.00000000  0.14285714       0.023
   0.28571429  0.00000000  0.14285714       0.023
   0.42857143  0.00000000  0.14285714       0.023
   0.14285714  0.14285714  0.14285714       0.023
   0.28571429  0.14285714  0.14285714       0.047
   0.42857143  0.14285714  0.14285714       0.047
   0.28571429  0.28571429  0.14285714       0.023
   0.42857143  0.28571429  0.14285714       0.047
   0.42857143  0.42857143  0.14285714       0.023
   0.00000000  0.00000000  0.28571429       0.006
   0.14285714  0.00000000  0.28571429       0.023
   0.28571429  0.00000000  0.28571429       0.023
   0.42857143  0.00000000  0.28571429       0.023
   0.14285714  0.14285714  0.28571429       0.023
   0.28571429  0.14285714  0.28571429       0.047
   0.42857143  0.14285714  0.28571429       0.047
   0.28571429  0.28571429  0.28571429       0.023
   0.42857143  0.28571429  0.28571429       0.047
   0.42857143  0.42857143  0.28571429       0.023
   0.00000000  0.00000000  0.42857143       0.006
   0.14285714  0.00000000  0.42857143       0.023
   0.28571429  0.00000000  0.42857143       0.023
   0.42857143  0.00000000  0.42857143       0.023
   0.14285714  0.14285714  0.42857143       0.023
   0.28571429  0.14285714  0.42857143       0.047
   0.42857143  0.14285714  0.42857143       0.047
   0.28571429  0.28571429  0.42857143       0.023
   0.42857143  0.28571429  0.42857143       0.047
   0.42857143  0.42857143  0.42857143       0.023

 position of ions in fractional coordinates (direct lattice) 
   0.25000000  0.25000000  0.25000000
   0.75000000  0.25000000  0.25000000
   0.25000000  0.75000000  0.25000000
   0.75000000  0.75000000  0.25000000
   0.25000000  0.25000000  0.75000000
   0.75000000  0.25000000  0.75000000
   0.25000000  0.75000000  0.75000000
   0.75000000  0.75000000  0.75000000
   0.50000000  0.00000000  0.00000000
   0.50000000  0.50000000  0.00000000
   0.00000000  0.50000000  0.00000000
   0.00000000  0.00000000  0.50000000
   0.50000000  0.00000000  0.50000000
   0.00000000  0.50000000  0.50000000
   0.00000000  0.00000000  0.00000000
   0.50000000  0.50000000  0.50000000

 position of ions in cartesian coordinates  (Angst):
   1.49005141  1.49005141  1.49005141
   4.47015422  1.49005141  1.49005141
   1.49005141  4.47015422  1.49005141
   4.47015422  4.47015422  1.49005141
   1.49005141  1.49005141  4.47015422
   4.47015422  1.49005141  4.47015422
   1.49005141  4.47015422  4.47015422
   4.47015422  4.47015422  4.47015422
   2.98010281  0.00000000  0.00000000
   2.98010281  2.98010281  0.00000000
   0.00000000  2.98010281  0.00000000
   0.00000000  0.00000000  2.98010281
   2.98010281  0.00000000  2.98010281
   0.00000000  2.98010281  2.98010281
   0.00000000  0.00000000  0.00000000
   2.98010281  2.98010281  2.98010281



--------------------------------------------------------------------------------------------------------


 k-point  1 :   0.0000 0.0000 0.0000  plane waves:    6187
 k-point  2 :   0.1429 0.0000 0.0000  plane waves:    6195
 k-point  3 :   0.2857 0.0000 0.0000  plane waves:    6195
 k-point  4 :   0.4286 0.0000 0.0000  plane waves:    6202
 k-point  5 :   0.1429 0.1429 0.0000  plane waves:    6204
 k-point  6 :   0.2857 0.1429 0.0000  plane waves:    6222
 k-point  7 :   0.4286 0.1429 0.0000  plane waves:    6199
 k-point  8 :   0.2857 0.2857 0.0000  plane waves:    6202
 k-point  9 :   0.4286 0.2857 0.0000  plane waves:    6196
 k-point 10 :   0.4286 0.4286 0.0000  plane waves:    6200
 k-point 11 :   0.0000 0.0000 0.1429  plane waves:    6195
 k-point 12 :   0.1429 0.0000 0.1429  plane waves:    6204
 k-point 13 :   0.2857 0.0000 0.1429  plane waves:    6222
 k-point 14 :   0.4286 0.0000 0.1429  plane waves:    6199
 k-point 15 :   0.1429 0.1429 0.1429  plane waves:    6193
 k-point 16 :   0.2857 0.1429 0.1429  plane waves:    6206
 k-point 17 :   0.4286 0.1429 0.1429  plane waves:    6208
 k-point 18 :   0.2857 0.2857 0.1429  plane waves:    6190
 k-point 19 :   0.4286 0.2857 0.1429  plane waves:    6203
 k-point 20 :   0.4286 0.4286 0.1429  plane waves:    6213
 k-point 21 :   0.0000 0.0000 0.2857  plane waves:    6195
 k-point 22 :   0.1429 0.0000 0.2857  plane waves:    6222
 k-point 23 :   0.2857 0.0000 0.2857  plane waves:    6202
 k-point 24 :   0.4286 0.0000 0.2857  plane waves:    6196
 k-point 25 :   0.1429 0.1429 0.2857  plane waves:    6206
 k-point 26 :   0.2857 0.1429 0.2857  plane waves:    6190
 k-point 27 :   0.4286 0.1429 0.2857  plane waves:    6203
 k-point 28 :   0.2857 0.2857 0.2857  plane waves:    6211
 k-point 29 :   0.4286 0.2857 0.2857  plane waves:    6196
 k-point 30 :   0.4286 0.4286 0.2857  plane waves:    6178
 k-point 31 :   0.0000 0.0000 0.4286  plane waves:    6202
 k-point 32 :   0.1429 0.0000 0.4286  plane waves:    6199
 k-point 33 :   0.2857 0.0000 0.4286  plane waves:    6196
 k-point 34 :   0.4286 0.0000 0.4286  plane waves:    6200
 k-point 35 :   0.1429 0.1429 0.4286  plane waves:    6208
 k-point 36 :   0.2857 0.1429 0.4286  plane waves:    6203
 k-point 37 :   0.4286 0.1429 0.4286  plane waves:    6213
 k-point 38 :   0.2857 0.2857 0.4286  plane waves:    6196
 k-point 39 :   0.4286 0.2857 0.4286  plane waves:    6178
 k-point 40 :   0.4286 0.4286 0.4286  plane waves:    6149

 maximum and minimum number of plane-waves per node :      6222     6149

 maximum number of plane-waves:      6222
 maximum index in each direction: 
   IXMAX=   11   IYMAX=   11   IZMAX=   11
   IXMIN=  -11   IYMIN=  -11   IZMIN=  -11


 serial   3D FFT for wavefunctions
 parallel 3D FFT for charge:
    minimum data exchange during FFTs selected (reduces bandwidth)


 total amount of memory used by VASP MPI-rank0   103557. kBytes
=======================================================================

   base      :      30000. kBytes
   nonlr-proj:       6835. kBytes
   fftplans  :       1269. kBytes
   grid      :       6573. kBytes
   one-center:        497. kBytes
   wavefun   :      58383. kBytes

     INWAV:  cpu time    0.0000: real time    0.0000
 Broyden mixing: mesh for mixing (old mesh)
   NGX = 23   NGY = 23   NGZ = 23
  (NGX  = 72   NGY  = 72   NGZ  = 72)
  gives a total of  12167 points

 initial charge density was supplied:
 charge density of overlapping atoms calculated
 number of electron     128.0000000 magnetization       8.8000000
 keeping initial charge density in first step


--------------------------------------------------------------------------------------------------------


 Maximum index for non-local projection operator         3887
 Maximum index for augmentation-charges         2111 (set IRDMAX)


--------------------------------------------------------------------------------------------------------


 First call to EWALD:  gamma=   0.297
 Maximum number of real-space cells 3x 3x 3
 Maximum number of reciprocal cells 3x 3x 3

    FEWALD:  cpu time    0.0023: real time    0.0023


--------------------------------------- Iteration      1(   1)  ---------------------------------------


    POTLOK:  cpu time    0.1060: real time    0.1131
    SETDIJ:  cpu time    0.0379: real time    0.0380
     EDDAV:  cpu time   24.9620: real time   25.0038
       DOS:  cpu time    0.0037: real time    0.0037
    --------------------------------------------
      LOOP:  cpu time   25.1096: real time   25.1586

 eigenvalue-minimisations  : 13440
 total energy-change (2. order) : 0.1066067E+04  (-0.5409492E+04)
 number of electron     128.0000000 magnetization       8.8000000
 augmentation part      128.0000000 magnetization       8.8000000

 Free energy of the ion-electron system (eV)
  ---------------------------------------------------
  alpha Z        PSCENC =       531.45148950
  Ewald energy   TEWEN  =     -9403.91533155
  -Hartree energ DENC   =     -3024.41039376
  -exchange      EXHF   =         0.00000000
  -V(xc)+E(xc)   XCENC  =        77.92550815
  PAW double counting   =     10320.96726947   -10647.99417394
  entropy T*S    EENTRO =        -0.00192355
  eigenvalues    EBANDS =      1982.58241010
  atomic energy  EATOM  =     11229.46195210
  Solvation  Ediel_sol  =         0.00000000
  ---------------------------------------------------
  free energy    TOTEN  =      1066.06680652 eV

  energy without entropy =     1066.06873007  energy(sigma->0) =     1066.06776830


--------------------------------------------------------------------------------------------------------




--------------------------------------- Iteration      1(   2)  ---------------------------------------


     EDDAV:  cpu time   24.4632: real time   24.5023
       DOS:  cpu time    0.0037: real time    0.0037
    --------------------------------------------
      LOOP:  cpu time   24.4669: real time   24.5060

 eigenvalue-minimisations  : 13440
 total energy-change (2. order) :-0.1064534E+04  (-0.1031859E+04)
 number of electron     128.0000000 magnetization       8.8000000
 augmentation part      128.0000000 magnetization       8.8000000

 Free energy of the ion-electron system (eV)
  ---------------------------------------------------
  alpha Z        PSCENC =       531.45148950
  Ewald energy   TEWEN  =     -9403.91533155
  -Hartree energ DENC   =     -3024.41039376
  -exchange      EXHF   =         0.00000000
  -V(xc)+E(xc)   XCENC  =        77.92550815
  PAW double counting   =     10320.96726947   -10647.99417394
  entropy T*S    EENTRO =        -0.00275198
  eigenvalues    EBANDS =       918.04888818
  atomic energy  EATOM  =     11229.46195210
  Solvation  Ediel_sol  =         0.00000000
  ---------------------------------------------------
  free energy    TOTEN  =         1.53245617 eV

  energy without entropy =        1.53520815  energy(sigma->0) =        1.53383216


--------------------------------------------------------------------------------------------------------




--------------------------------------- Iteration      1(   3)  ---------------------------------------


     EDDAV:  cpu time   26.3392: real time   26.4000
       DOS:  cpu time    0.0034: real time    0.0034
    --------------------------------------------
      LOOP:  cpu time   26.3426: real time   26.4034

 eigenvalue-minimisations  : 15168
 total energy-change (2. order) :-0.1118936E+03  (-0.9987764E+02)
 number of electron     128.0000000 magnetization       8.8000000
 augmentation part      128.0000000 magnetization       8.8000000

 Free energy of the ion-electron system (eV)
  ---------------------------------------------------
  alpha Z        PSCENC =       531.45148950
  Ewald energy   TEWEN  =     -9403.91533155
  -Hartree energ DENC   =     -3024.41039376
  -exchange      EXHF   =         0.00000000
  -V(xc)+E(xc)   XCENC  =        77.92550815
  PAW double counting   =     10320.96726947   -10647.99417394
  entropy T*S    EENTRO =        -0.00245410
  eigenvalues    EBANDS =       806.15497736
  atomic energy  EATOM  =     11229.46195210
  Solvation  Ediel_sol  =         0.00000000
  ---------------------------------------------------
  free energy    TOTEN  =      -110.36115676 eV

  energy without entropy =     -110.35870267  energy(sigma->0) =     -110.35992972


--------------------------------------------------------------------------------------------------------




--------------------------------------- Iteration      1(   4)  ---------------------------------------


     EDDAV:  cpu time   32.6955: real time   32.8119
       DOS:  cpu time    0.0036: real time    0.0037
    --------------------------------------------
      LOOP:  cpu time   32.6992: real time   32.8155

 eigenvalue-minimisations  : 19776
 total energy-change (2. order) :-0.6632558E+01  (-0.6313638E+01)
 number of electron     128.0000000 magnetization       8.8000000
 augmentation part      128.0000000 magnetization       8.8000000

 Free energy of the ion-electron system (eV)
  ---------------------------------------------------
  alpha Z        PSCENC =       531.45148950
  Ewald energy   TEWEN  =     -9403.91533155
  -Hartree energ DENC   =     -3024.41039376
  -exchange      EXHF   =         0.00000000
  -V(xc)+E(xc)   XCENC  =        77.92550815
  PAW double counting   =     10320.96726947   -10647.99417394
  entropy T*S    EENTRO =        -0.00286437
  eigenvalues    EBANDS =       799.52282930
  atomic energy  EATOM  =     11229.46195210
  Solvation  Ediel_sol  =         0.00000000
  ---------------------------------------------------
  free energy    TOTEN  =      -116.99371510 eV

  energy without entropy =     -116.99085073  energy(sigma->0) =     -116.99228292


--------------------------------------------------------------------------------------------------------




--------------------------------------- Iteration      1(   5)  ---------------------------------------


     EDDAV:  cpu time   32.5714: real time   32.6901
       DOS:  cpu time    0.0036: real time    0.0037
    CHARGE:  cpu time    0.7130: real time    0.7162
    MIXING:  cpu time    0.0016: real time    0.0016
    --------------------------------------------
      LOOP:  cpu time   33.2897: real time   33.4115

 eigenvalue-minimisations  : 19680
 total energy-change (2. order) :-0.2237324E+00  (-0.2227910E+00)
 number of electron     127.9999523 magnetization       7.3316734
 augmentation part       60.5426491 magnetization       4.6911579

 Broyden mixing:
  rms(total) = 0.34250E+01    rms(broyden)= 0.34249E+01
  rms(prec ) = 0.54023E+01
  weight for this iteration     100.00

 Free energy of the ion-electron system (eV)
  ---------------------------------------------------
  alpha Z        PSCENC =       531.45148950
  Ewald energy   TEWEN  =     -9403.91533155
  -Hartree energ DENC   =     -3024.41039376
  -exchange      EXHF   =         0.00000000
  -V(xc)+E(xc)   XCENC  =        77.92550815
  PAW double counting   =     10320.96726947   -10647.99417394
  entropy T*S    EENTRO =        -0.00278059
  eigenvalues    EBANDS =       799.29901308
  atomic energy  EATOM  =     11229.46195210
  Solvation  Ediel_sol  =         0.00000000
  ---------------------------------------------------
  free energy    TOTEN  =      -117.21744754 eV

  energy without entropy =     -117.21466695  energy(sigma->0) =     -117.21605725


--------------------------------------------------------------------------------------------------------




--------------------------------------- Iteration      1(   6)  ---------------------------------------


    POTLOK:  cpu time    0.0980: real time    0.0981
    SETDIJ:  cpu time    0.0366: real time    0.0366
    EDDIAG:  cpu time    3.3364: real time    3.3479
  RMM-DIIS:  cpu time   10.6847: real time   10.7256
    ORTHCH:  cpu time    0.6424: real time    0.6462
       DOS:  cpu time    0.0039: real time    0.0040
    CHARGE:  cpu time    0.7428: real time    0.7455
    MIXING:  cpu time    0.0017: real time    0.0017
    --------------------------------------------
      LOOP:  cpu time   15.5465: real time   15.6054

 eigenvalue-minimisations  : 13440
 total energy-change (2. order) : 0.5303338E+01  (-0.1815647E+02)
 number of electron     127.9999658 magnetization       7.7691014
 augmentation part       69.2165335 magnetization       5.7160255

 Broyden mixing:
  rms(total) = 0.52895E+01    rms(broyden)= 0.52893E+01
  rms(prec ) = 0.73658E+01
  weight for this iteration     100.00

 eigenvalues of (default mixing * dielectric matrix)
  average eigenvalue GAMMA=   0.1887
  0.1887

 Free energy of the ion-electron system (eV)
  ---------------------------------------------------
  alpha Z        PSCENC =       531.45148950
  Ewald energy   TEWEN  =     -9403.91533155
  -Hartree energ DENC   =     -2793.01511663
  -exchange      EXHF   =         0.00000000
  -V(xc)+E(xc)   XCENC  =        66.33754679
  PAW double counting   =     11124.52634106   -11418.42268084
  entropy T*S    EENTRO =        -0.00814149
  eigenvalues    EBANDS =       551.66983165
  atomic energy  EATOM  =     11229.46195210
  Solvation  Ediel_sol  =         0.00000000
  ---------------------------------------------------
  free energy    TOTEN  =      -111.91410941 eV

  energy without entropy =     -111.90596792  energy(sigma->0) =     -111.91003867


--------------------------------------------------------------------------------------------------------




--------------------------------------- Iteration      1(   7)  ---------------------------------------


    POTLOK:  cpu time    0.0975: real time    0.0976
    SETDIJ:  cpu time    0.0362: real time    0.0365
    EDDIAG:  cpu time    3.3325: real time    3.3458
  RMM-DIIS:  cpu time   10.7529: real time   10.7953
    ORTHCH:  cpu time    0.6437: real time    0.6444
       DOS:  cpu time    0.0037: real time    0.0037
    CHARGE:  cpu time    0.7251: real time    0.7279
    MIXING:  cpu time    0.0017: real time    0.0017
    --------------------------------------------
      LOOP:  cpu time   15.5932: real time   15.6528

 eigenvalue-minimisations  : 13443
 total energy-change (2. order) : 0.1115699E+01  (-0.4103099E+01)
 number of electron     127.9999446 magnetization       8.1787898
 augmentation part       71.0725725 magnetization       5.5003285

 Broyden mixing:
  rms(total) = 0.32733E+01    rms(broyden)= 0.32730E+01
  rms(prec ) = 0.51858E+01
  weight for this iteration     100.00

 eigenvalues of (default mixing * dielectric matrix)
  average eigenvalue GAMMA=   0.4085
  0.4085  0.4085

 Free energy of the ion-electron system (eV)
  ---------------------------------------------------
  alpha Z        PSCENC =       531.45148950
  Ewald energy   TEWEN  =     -9403.91533155
  -Hartree energ DENC   =     -2763.01376504
  -exchange      EXHF   =         0.00000000
  -V(xc)+E(xc)   XCENC  =        65.37234985
  PAW double counting   =     11357.05047996   -11651.32465571
  entropy T*S    EENTRO =        -0.00139873
  eigenvalues    EBANDS =       524.12046941
  atomic energy  EATOM  =     11229.46195210
  Solvation  Ediel_sol  =         0.00000000
  ---------------------------------------------------
  free energy    TOTEN  =      -110.79841022 eV

  energy without entropy =     -110.79701149  energy(sigma->0) =     -110.79771086


--------------------------------------------------------------------------------------------------------




--------------------------------------- Iteration      1(   8)  ---------------------------------------


    POTLOK:  cpu time    0.1036: real time    0.1099
    SETDIJ:  cpu time    0.0383: real time    0.0383
    EDDIAG:  cpu time    3.3927: real time    3.4072
  RMM-DIIS:  cpu time   10.5318: real time   10.5739
    ORTHCH:  cpu time    0.6420: real time    0.6448
       DOS:  cpu time    0.0040: real time    0.0040
    CHARGE:  cpu time    0.7322: real time    0.7355
    MIXING:  cpu time    0.0018: real time    0.0018
    --------------------------------------------
      LOOP:  cpu time   15.4464: real time   15.5154

 eigenvalue-minimisations  : 13462
 total energy-change (2. order) : 0.7677817E+01  (-0.2334958E+01)
 number of electron     127.9999579 magnetization       9.0831150
 augmentation part       67.3429078 magnetization       6.5407997

 Broyden mixing:
  rms(total) = 0.12129E+01    rms(broyden)= 0.12127E+01
  rms(prec ) = 0.19160E+01
  weight for this iteration     100.00

 eigenvalues of (default mixing * dielectric matrix)
  average eigenvalue GAMMA=   0.5712
  0.7423  0.7423  0.2290

 Free energy of the ion-electron system (eV)
  ---------------------------------------------------
  alpha Z        PSCENC =       531.45148950
  Ewald energy   TEWEN  =     -9403.91533155
  -Hartree energ DENC   =     -2839.45200451
  -exchange      EXHF   =         0.00000000
  -V(xc)+E(xc)   XCENC  =        72.09799280
  PAW double counting   =     11819.98601012   -12147.06130887
  entropy T*S    EENTRO =        -0.00304553
  eigenvalues    EBANDS =       634.31365275
  atomic energy  EATOM  =     11229.46195210
  Solvation  Ediel_sol  =         0.00000000
  ---------------------------------------------------
  free energy    TOTEN  =      -103.12059319 eV

  energy without entropy =     -103.11754766  energy(sigma->0) =     -103.11907043


--------------------------------------------------------------------------------------------------------




--------------------------------------- Iteration      1(   9)  ---------------------------------------


    POTLOK:  cpu time    0.0981: real time    0.0983
    SETDIJ:  cpu time    0.0365: real time    0.0366
    EDDIAG:  cpu time    3.3520: real time    3.3624
  RMM-DIIS:  cpu time   10.6179: real time   10.6551
    ORTHCH:  cpu time    0.6439: real time    0.6448
       DOS:  cpu time    0.0038: real time    0.0038
    CHARGE:  cpu time    0.7258: real time    0.7285
    MIXING:  cpu time    0.0018: real time    0.0018
    --------------------------------------------
      LOOP:  cpu time   15.4798: real time   15.5313

 eigenvalue-minimisations  : 13569
 total energy-change (2. order) :-0.1552155E+00  (-0.1732677E+00)
 number of electron     127.9999529 magnetization       9.3750493
 augmentation part       67.9607618 magnetization       7.2691619

 Broyden mixing:
  rms(total) = 0.91724E+00    rms(broyden)= 0.91717E+00
  rms(prec ) = 0.15007E+01
  weight for this iteration     100.00

 eigenvalues of (default mixing * dielectric matrix)
  average eigenvalue GAMMA=   0.6572
  1.2900  0.6574  0.4733  0.2083

 Free energy of the ion-electron system (eV)
  ---------------------------------------------------
  alpha Z        PSCENC =       531.45148950
  Ewald energy   TEWEN  =     -9403.91533155
  -Hartree energ DENC   =     -2826.66531297
  -exchange      EXHF   =         0.00000000
  -V(xc)+E(xc)   XCENC  =        74.01530348
  PAW double counting   =     12194.86336401   -12527.72641191
  entropy T*S    EENTRO =        -0.00213531
  eigenvalues    EBANDS =       625.24127392
  atomic energy  EATOM  =     11229.46195210
  Solvation  Ediel_sol  =         0.00000000
  ---------------------------------------------------
  free energy    TOTEN  =      -103.27580873 eV

  energy without entropy =     -103.27367342  energy(sigma->0) =     -103.27474108


--------------------------------------------------------------------------------------------------------




--------------------------------------- Iteration      1(  10)  ---------------------------------------


    POTLOK:  cpu time    0.0981: real time    0.0982
    SETDIJ:  cpu time    0.0364: real time    0.0364
    EDDIAG:  cpu time    3.3551: real time    3.3682
  RMM-DIIS:  cpu time   10.6806: real time   10.7185
    ORTHCH:  cpu time    0.6432: real time    0.6460
       DOS:  cpu time    0.0034: real time    0.0035
    CHARGE:  cpu time    0.7303: real time    0.7331
    MIXING:  cpu time    0.0020: real time    0.0020
    --------------------------------------------
      LOOP:  cpu time   15.5490: real time   15.6058

 eigenvalue-minimisations  : 13470
 total energy-change (2. order) : 0.3195190E+00  (-0.1014143E+00)
 number of electron     127.9999535 magnetization       9.4910989
 augmentation part       67.8576604 magnetization       6.9053790

 Broyden mixing:
  rms(total) = 0.58852E+00    rms(broyden)= 0.58851E+00
  rms(prec ) = 0.87472E+00
  weight for this iteration     100.00

 eigenvalues of (default mixing * dielectric matrix)
  average eigenvalue GAMMA=   0.6893
  1.7426  0.6173  0.6173  0.2104  0.2591

 Free energy of the ion-electron system (eV)
  ---------------------------------------------------
  alpha Z        PSCENC =       531.45148950
  Ewald energy   TEWEN  =     -9403.91533155
  -Hartree energ DENC   =     -2825.20133462
  -exchange      EXHF   =         0.00000000
  -V(xc)+E(xc)   XCENC  =        75.20139544
  PAW double counting   =     12478.50604236   -12816.46182530
  entropy T*S    EENTRO =        -0.00103993
  eigenvalues    EBANDS =       628.00236224
  atomic energy  EATOM  =     11229.46195210
  Solvation  Ediel_sol  =         0.00000000
  ---------------------------------------------------
  free energy    TOTEN  =      -102.95628976 eV

  energy without entropy =     -102.95524983  energy(sigma->0) =     -102.95576980


--------------------------------------------------------------------------------------------------------




--------------------------------------- Iteration      1(  11)  ---------------------------------------


    POTLOK:  cpu time    0.0985: real time    0.0986
    SETDIJ:  cpu time    0.0365: real time    0.0366
    EDDIAG:  cpu time    3.3673: real time    3.3787
  RMM-DIIS:  cpu time   11.0901: real time   11.1297
    ORTHCH:  cpu time    0.6441: real time    0.6469
       DOS:  cpu time    0.0037: real time    0.0037
    CHARGE:  cpu time    0.7217: real time    0.7243
    MIXING:  cpu time    0.0020: real time    0.0020
    --------------------------------------------
      LOOP:  cpu time   15.9640: real time   16.0206

 eigenvalue-minimisations  : 13971
 total energy-change (2. order) : 0.1354124E+00  (-0.3667515E-01)
 number of electron     127.9999548 magnetization       9.3778948
 augmentation part       67.5788868 magnetization       6.9296695

 Broyden mixing:
  rms(total) = 0.22125E+00    rms(broyden)= 0.22122E+00
  rms(prec ) = 0.25427E+00
  weight for this iteration     100.00

 eigenvalues of (default mixing * dielectric matrix)
  average eigenvalue GAMMA=   0.8091
  2.1897  0.8139  0.8139  0.5433  0.2117  0.2824

 Free energy of the ion-electron system (eV)
  ---------------------------------------------------
  alpha Z        PSCENC =       531.45148950
  Ewald energy   TEWEN  =     -9403.91533155
  -Hartree energ DENC   =     -2825.85859307
  -exchange      EXHF   =         0.00000000
  -V(xc)+E(xc)   XCENC  =        76.18822632
  PAW double counting   =     12756.53125316   -13099.52012984
  entropy T*S    EENTRO =        -0.00127241
  eigenvalues    EBANDS =       632.84152839
  atomic energy  EATOM  =     11229.46195210
  Solvation  Ediel_sol  =         0.00000000
  ---------------------------------------------------
  free energy    TOTEN  =      -102.82087740 eV

  energy without entropy =     -102.81960500  energy(sigma->0) =     -102.82024120


--------------------------------------------------------------------------------------------------------




--------------------------------------- Iteration      1(  12)  ---------------------------------------


    POTLOK:  cpu time    0.1003: real time    0.1034
    SETDIJ:  cpu time    0.0366: real time    0.0366
    EDDIAG:  cpu time    3.3746: real time    3.3862
  RMM-DIIS:  cpu time   11.5240: real time   11.5641
    ORTHCH:  cpu time    0.6422: real time    0.6429
       DOS:  cpu time    0.0037: real time    0.0038
    CHARGE:  cpu time    0.7293: real time    0.7320
    MIXING:  cpu time    0.0022: real time    0.0022
    --------------------------------------------
      LOOP:  cpu time   16.4129: real time   16.4711

 eigenvalue-minimisations  : 14448
 total energy-change (2. order) : 0.1031047E-01  (-0.7564301E-02)
 number of electron     127.9999546 magnetization       9.2391850
 augmentation part       67.7408437 magnetization       6.8072754

 Broyden mixing:
  rms(total) = 0.11243E+00    rms(broyden)= 0.11243E+00
  rms(prec ) = 0.12457E+00
  weight for this iteration     100.00

 eigenvalues of (default mixing * dielectric matrix)
  average eigenvalue GAMMA=   0.8591
  2.2177  0.9812  0.9812  0.7729  0.5649  0.2116  0.2845

 Free energy of the ion-electron system (eV)
  ---------------------------------------------------
  alpha Z        PSCENC =       531.45148950
  Ewald energy   TEWEN  =     -9403.91533155
  -Hartree energ DENC   =     -2820.19058075
  -exchange      EXHF   =         0.00000000
  -V(xc)+E(xc)   XCENC  =        76.21083271
  PAW double counting   =     12923.09036736   -13267.39200581
  entropy T*S    EENTRO =        -0.00124138
  eigenvalues    EBANDS =       628.47395089
  atomic energy  EATOM  =     11229.46195210
  Solvation  Ediel_sol  =         0.00000000
  ---------------------------------------------------
  free energy    TOTEN  =      -102.81056694 eV

  energy without entropy =     -102.80932556  energy(sigma->0) =     -102.80994625


--------------------------------------------------------------------------------------------------------




--------------------------------------- Iteration      1(  13)  ---------------------------------------


    POTLOK:  cpu time    0.0978: real time    0.0979
    SETDIJ:  cpu time    0.0365: real time    0.0365
    EDDIAG:  cpu time    3.3831: real time    3.3961
  RMM-DIIS:  cpu time   11.2681: real time   11.3082
    ORTHCH:  cpu time    0.6448: real time    0.6477
       DOS:  cpu time    0.0037: real time    0.0038
    CHARGE:  cpu time    0.7319: real time    0.7327
    MIXING:  cpu time    0.0023: real time    0.0023
    --------------------------------------------
      LOOP:  cpu time   16.1683: real time   16.2251

 eigenvalue-minimisations  : 14187
 total energy-change (2. order) : 0.1362503E-02  (-0.1418979E-02)
 number of electron     127.9999545 magnetization       9.2086294
 augmentation part       67.7703550 magnetization       6.7679445

 Broyden mixing:
  rms(total) = 0.41848E-01    rms(broyden)= 0.41848E-01
  rms(prec ) = 0.47660E-01
  weight for this iteration     100.00

 eigenvalues of (default mixing * dielectric matrix)
  average eigenvalue GAMMA=   0.9494
  2.2487  1.8490  0.8795  0.8795  0.6895  0.5515  0.2116  0.2853

 Free energy of the ion-electron system (eV)
  ---------------------------------------------------
  alpha Z        PSCENC =       531.45148950
  Ewald energy   TEWEN  =     -9403.91533155
  -Hartree energ DENC   =     -2819.38550344
  -exchange      EXHF   =         0.00000000
  -V(xc)+E(xc)   XCENC  =        75.96774535
  PAW double counting   =     12959.64879547   -13303.89524430
  entropy T*S    EENTRO =        -0.00126588
  eigenvalues    EBANDS =       627.85815831
  atomic energy  EATOM  =     11229.46195210
  Solvation  Ediel_sol  =         0.00000000
  ---------------------------------------------------
  free energy    TOTEN  =      -102.80920443 eV

  energy without entropy =     -102.80793856  energy(sigma->0) =     -102.80857150


--------------------------------------------------------------------------------------------------------




--------------------------------------- Iteration      1(  14)  ---------------------------------------


    POTLOK:  cpu time    0.0978: real time    0.0979
    SETDIJ:  cpu time    0.0368: real time    0.0368
    EDDIAG:  cpu time    3.3937: real time    3.4200
  RMM-DIIS:  cpu time   12.5058: real time   12.5591
    ORTHCH:  cpu time    0.6451: real time    0.6479
       DOS:  cpu time    0.0038: real time    0.0039
    CHARGE:  cpu time    0.7337: real time    0.7363
    MIXING:  cpu time    0.0025: real time    0.0025
    --------------------------------------------
      LOOP:  cpu time   17.4192: real time   17.5045

 eigenvalue-minimisations  : 15575
 total energy-change (2. order) :-0.1304188E-03  (-0.2706270E-03)
 number of electron     127.9999546 magnetization       9.2174738
 augmentation part       67.7685827 magnetization       6.7804514

 Broyden mixing:
  rms(total) = 0.13970E-01    rms(broyden)= 0.13969E-01
  rms(prec ) = 0.18370E-01
  weight for this iteration     100.00

 eigenvalues of (default mixing * dielectric matrix)
  average eigenvalue GAMMA=   1.0079
  2.3274  2.3274  0.2116  0.2853  0.9305  0.9305  0.5473  0.7555  0.7555

 Free energy of the ion-electron system (eV)
  ---------------------------------------------------
  alpha Z        PSCENC =       531.45148950
  Ewald energy   TEWEN  =     -9403.91533155
  -Hartree energ DENC   =     -2819.44177987
  -exchange      EXHF   =         0.00000000
  -V(xc)+E(xc)   XCENC  =        75.98509608
  PAW double counting   =     12972.07195638   -13316.30995336
  entropy T*S    EENTRO =        -0.00129686
  eigenvalues    EBANDS =       627.88853274
  atomic energy  EATOM  =     11229.46195210
  Solvation  Ediel_sol  =         0.00000000
  ---------------------------------------------------
  free energy    TOTEN  =      -102.80933485 eV

  energy without entropy =     -102.80803799  energy(sigma->0) =     -102.80868642


--------------------------------------------------------------------------------------------------------




--------------------------------------- Iteration      1(  15)  ---------------------------------------


    POTLOK:  cpu time    0.0980: real time    0.0982
    SETDIJ:  cpu time    0.0365: real time    0.0366
    EDDIAG:  cpu time    3.4037: real time    3.4143
  RMM-DIIS:  cpu time   12.0435: real time   12.0876
    ORTHCH:  cpu time    0.6436: real time    0.6462
       DOS:  cpu time    0.0036: real time    0.0037
    CHARGE:  cpu time    0.7320: real time    0.7351
    MIXING:  cpu time    0.0027: real time    0.0027
    --------------------------------------------
      LOOP:  cpu time   16.9636: real time   17.0243

 eigenvalue-minimisations  : 14891
 total energy-change (2. order) : 0.3102987E-04  (-0.3477168E-04)
 number of electron     127.9999546 magnetization       9.2288318
 augmentation part       67.7721228 magnetization       6.7896484

 Broyden mixing:
  rms(total) = 0.82018E-02    rms(broyden)= 0.82015E-02
  rms(prec ) = 0.92391E-02
  weight for this iteration     100.00

 eigenvalues of (default mixing * dielectric matrix)
  average eigenvalue GAMMA=   1.0113
  2.3762  2.3762  1.0661  1.0661  0.2116  0.2853  0.7932  0.7932  0.5541  0.5913

 Free energy of the ion-electron system (eV)
  ---------------------------------------------------
  alpha Z        PSCENC =       531.45148950
  Ewald energy   TEWEN  =     -9403.91533155
  -Hartree energ DENC   =     -2819.51821914
  -exchange      EXHF   =         0.00000000
  -V(xc)+E(xc)   XCENC  =        75.98010682
  PAW double counting   =     12970.33048163   -13314.47037820
  entropy T*S    EENTRO =        -0.00128281
  eigenvalues    EBANDS =       627.87187783
  atomic energy  EATOM  =     11229.46195210
  Solvation  Ediel_sol  =         0.00000000
  ---------------------------------------------------
  free energy    TOTEN  =      -102.80930382 eV

  energy without entropy =     -102.80802101  energy(sigma->0) =     -102.80866242


--------------------------------------------------------------------------------------------------------




--------------------------------------- Iteration      1(  16)  ---------------------------------------


    POTLOK:  cpu time    0.1042: real time    0.1052
    SETDIJ:  cpu time    0.0383: real time    0.0384
    EDDIAG:  cpu time    3.4524: real time    3.4632
  RMM-DIIS:  cpu time   10.3429: real time   10.3849
    ORTHCH:  cpu time    0.6430: real time    0.6438
       DOS:  cpu time    0.0037: real time    0.0037
    CHARGE:  cpu time    0.7267: real time    0.7294
    MIXING:  cpu time    0.0028: real time    0.0028
    --------------------------------------------
      LOOP:  cpu time   15.3139: real time   15.3713

 eigenvalue-minimisations  : 12801
 total energy-change (2. order) : 0.1226584E-04  (-0.1014945E-04)
 number of electron     127.9999546 magnetization       9.2291238
 augmentation part       67.7689001 magnetization       6.7897747

 Broyden mixing:
  rms(total) = 0.27574E-02    rms(broyden)= 0.27573E-02
  rms(prec ) = 0.31568E-02
  weight for this iteration     100.00

 eigenvalues of (default mixing * dielectric matrix)
  average eigenvalue GAMMA=   1.0743
  2.5897  2.5897  1.5430  0.2116  0.2853  0.8963  0.8963  0.8224  0.8224  0.5490
  0.6120

 Free energy of the ion-electron system (eV)
  ---------------------------------------------------
  alpha Z        PSCENC =       531.45148950
  Ewald energy   TEWEN  =     -9403.91533155
  -Hartree energ DENC   =     -2819.62256142
  -exchange      EXHF   =         0.00000000
  -V(xc)+E(xc)   XCENC  =        76.02082492
  PAW double counting   =     12971.12956646   -13315.27349532
  entropy T*S    EENTRO =        -0.00128242
  eigenvalues    EBANDS =       627.93954617
  atomic energy  EATOM  =     11229.46195210
  Solvation  Ediel_sol  =         0.00000000
  ---------------------------------------------------
  free energy    TOTEN  =      -102.80929156 eV

  energy without entropy =     -102.80800914  energy(sigma->0) =     -102.80865035


--------------------------------------------------------------------------------------------------------




--------------------------------------- Iteration      1(  17)  ---------------------------------------


    POTLOK:  cpu time    0.0978: real time    0.0979
    SETDIJ:  cpu time    0.0366: real time    0.0366
    EDDIAG:  cpu time    3.4192: real time    3.4319
  RMM-DIIS:  cpu time    7.2304: real time    7.2630
    ORTHCH:  cpu time    0.6442: real time    0.6469
       DOS:  cpu time    0.0035: real time    0.0035
    --------------------------------------------
      LOOP:  cpu time   11.4316: real time   11.4800

 eigenvalue-minimisations  :  8365
 total energy-change (2. order) : 0.2940360E-05  (-0.1619598E-05)
 number of electron     127.9999546 magnetization       9.2291238
 augmentation part       67.7689001 magnetization       6.7897747

 Free energy of the ion-electron system (eV)
  ---------------------------------------------------
  alpha Z        PSCENC =       531.45148950
  Ewald energy   TEWEN  =     -9403.91533155
  -Hartree energ DENC   =     -2819.65718872
  -exchange      EXHF   =         0.00000000
  -V(xc)+E(xc)   XCENC  =        76.01775565
  PAW double counting   =     12970.89194696   -13315.02741202
  entropy T*S    EENTRO =        -0.00128112
  eigenvalues    EBANDS =       627.96878058
  atomic energy  EATOM  =     11229.46195210
  Solvation  Ediel_sol  =         0.00000000
  ---------------------------------------------------
  free energy    TOTEN  =      -102.80928862 eV

  energy without entropy =     -102.80800750  energy(sigma->0) =     -102.80864806


--------------------------------------------------------------------------------------------------------




 average (electrostatic) potential at core
  the test charge radii are     0.9791  1.0210  1.4837
  (the norm of the test charge is              1.0000)
       1 -83.8725       2 -83.8725       3 -83.8725       4 -83.8725       5 -83.8725
       6 -83.8725       7 -83.8725       8 -83.8725       9 -42.4351      10 -42.6521
      11 -42.4351      12 -42.6521      13 -42.4351      14 -42.4351      15 -34.5492
      16 -34.5492



 E-fermi :   7.4325     XC(G=0): -12.2925     alpha+bet :-14.1301


 spin component 1

 k-point     1 :       0.0000    0.0000    0.0000
  band No.  band energies     occupation 
      1      -1.9874      1.00000
      2       0.5099      1.00000
      3       2.2110      1.00000
      4       2.2110      1.00000
      5       2.2503      1.00000
      6       2.3697      1.00000
      7       2.9728      1.00000
      8       3.0691      1.00000
      9       3.0691      1.00000
     10       3.1133      1.00000
     11       3.1164      1.00000
[...]
     79      11.1341      0.00000
     80      11.1783      0.00000
     81      11.6780      0.00000
     82      11.6984      0.00000
     83      12.1683      0.00000
     84      12.3308      0.00000


--------------------------------------------------------------------------------------------------------


 soft charge-density along one line, spin component           1
         0         1         2         3         4         5         6         7         8         9
 total charge-density along one line

 soft charge-density along one line, spin component           2
         0         1         2         3         4         5         6         7         8         9
 total charge-density along one line

 pseudopotential strength for first ion, spin component:           1
 -1.691   0.007  -0.050   0.007  -0.000  -2.324   0.007  -0.047
  0.007  -1.680  -0.007  -0.017   0.013   0.007  -2.314  -0.007
 -0.050  -0.007  -1.700  -0.007   0.000  -0.047  -0.007  -2.333
  0.007  -0.017  -0.007  -1.680  -0.013   0.007  -0.017  -0.007
 -0.000   0.013   0.000  -0.013  -1.713  -0.000   0.012   0.000
 -2.324   0.007  -0.047   0.007  -0.000  -2.888   0.006  -0.045
  0.007  -2.314  -0.007  -0.017   0.012   0.006  -2.879  -0.007
 -0.047  -0.007  -2.333  -0.007   0.000  -0.045  -0.007  -2.896
  0.007  -0.017  -0.007  -2.314  -0.012   0.006  -0.016  -0.007
 -0.000   0.012   0.000  -0.012  -2.346  -0.000   0.012   0.000
 -0.010   0.000  -0.002   0.000   0.000  -0.010   0.001  -0.002
 -0.019   0.001  -0.003   0.001   0.000  -0.018   0.001  -0.003
  0.000  -0.000   0.000   0.000   0.000   0.000  -0.000   0.000
  0.000  -0.000  -0.000   0.000  -0.000   0.000  -0.000  -0.000
 -0.000   0.000  -0.000  -0.000   0.000  -0.000   0.000  -0.000
  0.000  -0.000   0.000   0.000   0.000   0.000  -0.000   0.000
  0.000  -0.000  -0.000   0.000  -0.000   0.000  -0.000  -0.000
 -0.000   0.000  -0.000  -0.000   0.000  -0.000   0.000  -0.000
 pseudopotential strength for first ion, spin component:           2
 -1.520   0.001   0.058   0.001  -0.000  -2.162   0.001   0.056
  0.001  -1.504   0.014  -0.003  -0.025   0.001  -2.146   0.014
  0.058   0.014  -1.450   0.014   0.000   0.056   0.014  -2.094
  0.001  -0.003   0.014  -1.504   0.025   0.001  -0.002   0.014
 -0.000  -0.025   0.000   0.025  -1.462  -0.000  -0.023   0.000
 -2.162   0.001   0.056   0.001  -0.000  -2.733   0.000   0.053
  0.001  -2.146   0.014  -0.002  -0.023   0.000  -2.718   0.013
  0.056   0.014  -2.094   0.014   0.000   0.053   0.013  -2.669
  0.001  -0.002   0.014  -2.146   0.023   0.000  -0.002   0.013
 -0.000  -0.023   0.000   0.023  -2.106  -0.000  -0.022   0.000
  0.009  -0.007  -0.002  -0.007   0.000   0.009  -0.007  -0.002
  0.016  -0.013  -0.003  -0.013   0.000   0.016  -0.012  -0.003
  0.000  -0.000   0.000   0.000   0.000   0.000  -0.000   0.000
  0.000  -0.000  -0.000   0.000  -0.000   0.000  -0.000  -0.000
 -0.000   0.000  -0.000  -0.000   0.000  -0.000   0.000  -0.000
  0.000  -0.000   0.000   0.000   0.000   0.000  -0.000   0.000
  0.000  -0.000  -0.000   0.000  -0.000   0.000  -0.000  -0.000
 -0.000   0.000  -0.000  -0.000   0.000  -0.000   0.000  -0.000
 total augmentation occupancy for first ion, spin component:           1
  1.955   0.105   0.069   0.105   0.000  -0.503  -0.092  -0.065  -0.092   0.000  -0.105   0.041   0.000  -0.000   0.000   0.000
  0.105   2.028  -0.006   0.030   0.014  -0.092  -0.547   0.007  -0.050  -0.013  -0.074   0.036  -0.000   0.000  -0.000   0.000
  0.069  -0.006   2.708  -0.006   0.000  -0.065   0.007  -1.001   0.007   0.000   0.004   0.002   0.000  -0.000   0.000   0.000
  0.105   0.030  -0.006   2.028  -0.014  -0.092  -0.050   0.007  -0.547   0.013  -0.074   0.036  -0.000   0.000   0.000   0.000
 -0.000   0.014   0.000  -0.014   2.730  -0.000  -0.013  -0.000   0.013  -1.015   0.000  -0.000  -0.000   0.000  -0.000   0.000
 -0.503  -0.092  -0.065  -0.092  -0.000   0.826   0.086   0.045   0.086   0.000   0.063  -0.026   0.000   0.000  -0.000  -0.000
 -0.092  -0.547   0.007  -0.050  -0.013   0.086   0.855  -0.001   0.061   0.002   0.046  -0.024   0.000   0.000   0.000   0.000
 -0.065   0.007  -1.001   0.007   0.000   0.045  -0.001   1.062  -0.001  -0.000  -0.001  -0.001   0.000   0.000   0.000  -0.000
 -0.092  -0.050   0.007  -0.547   0.013   0.086   0.061  -0.001   0.855  -0.002   0.046  -0.024  -0.000   0.000  -0.000   0.000
  0.000  -0.013   0.000   0.013  -1.015   0.000   0.002  -0.000  -0.002   1.066   0.000   0.000  -0.000  -0.000  -0.000  -0.000
 -0.105  -0.074   0.004  -0.074   0.000   0.063   0.046  -0.001   0.046   0.000   2.117  -0.289  -0.000   0.000   0.000  -0.000
  0.041   0.036   0.002   0.036   0.000  -0.026  -0.024  -0.001  -0.024   0.000  -0.289   0.050  -0.000   0.000   0.000   0.000
  0.000  -0.000   0.000  -0.000  -0.000   0.000   0.000   0.000  -0.000  -0.000   0.000   0.000   0.255   0.001   0.002  -0.027
  0.000   0.000   0.000   0.000   0.000  -0.000   0.000  -0.000  -0.000  -0.000  -0.000   0.000   0.001   0.255   0.001  -0.002
  0.000  -0.000   0.000   0.000  -0.000   0.000   0.000   0.000   0.000  -0.000   0.000   0.000   0.002   0.001   0.255  -0.002
  0.000   0.000  -0.000   0.000   0.000   0.000   0.000  -0.000   0.000   0.000   0.000   0.000  -0.027  -0.002  -0.002   0.003
  0.000  -0.000   0.000   0.000   0.000   0.000   0.000   0.000   0.000  -0.000  -0.000  -0.000  -0.002  -0.027  -0.002   0.001
  0.000  -0.000   0.000  -0.000  -0.000  -0.000  -0.000  -0.000  -0.000   0.000  -0.000  -0.000  -0.002  -0.002  -0.027   0.001
 total augmentation occupancy for first ion, spin component:           2
  0.273   0.075   0.470   0.075  -0.000  -0.163  -0.073  -0.246  -0.073  -0.000   0.131  -0.007  -0.000  -0.000   0.000  -0.000
  0.075   0.308   0.082  -0.270  -0.174  -0.073  -0.182  -0.040   0.252   0.095  -0.050   0.003   0.000   0.000   0.000  -0.000
  0.470   0.082   0.479   0.082  -0.000  -0.249  -0.039  -0.237  -0.039   0.000   0.021   0.008   0.000   0.000  -0.000   0.000
  0.075  -0.270   0.082   0.308   0.174  -0.073   0.252  -0.040  -0.182  -0.095  -0.050   0.003   0.000  -0.000  -0.000  -0.000
  0.000  -0.174  -0.000   0.174   0.447  -0.000   0.094   0.000  -0.094  -0.209  -0.000  -0.000   0.000   0.000  -0.000   0.000
 -0.163  -0.073  -0.249  -0.073   0.000   0.075   0.066   0.102   0.066   0.000  -0.085   0.019   0.000   0.000   0.000  -0.000
 -0.073  -0.182  -0.039   0.252   0.094   0.066   0.085   0.013  -0.220  -0.042   0.034  -0.007   0.000   0.000   0.000   0.000
 -0.246  -0.040  -0.237  -0.040   0.000   0.102   0.013   0.078   0.013  -0.000  -0.014  -0.004   0.000   0.000   0.000   0.000
 -0.073   0.252  -0.039  -0.182  -0.094   0.066  -0.220   0.013   0.085   0.042   0.034  -0.007   0.000   0.000  -0.000   0.000
 -0.000   0.095   0.000  -0.095  -0.209  -0.000  -0.042  -0.000   0.042   0.055   0.000   0.000   0.000   0.000   0.000   0.000
  0.131  -0.050   0.021  -0.050  -0.000  -0.085   0.034  -0.014   0.034   0.000  -0.042   0.010  -0.000   0.000   0.000   0.000
 -0.007   0.003   0.008   0.003  -0.000   0.019  -0.007  -0.004  -0.007   0.000   0.010  -0.002  -0.000  -0.000  -0.000   0.000
 -0.000   0.000   0.000   0.000   0.000   0.000   0.000   0.000   0.000   0.000  -0.000   0.000  -0.002   0.008  -0.020   0.000
  0.000   0.000   0.000  -0.000   0.000   0.000   0.000  -0.000   0.000   0.000  -0.000   0.000   0.008  -0.001   0.008  -0.001
  0.000   0.000  -0.000  -0.000  -0.000   0.000   0.000   0.000  -0.000   0.000   0.000  -0.000  -0.020   0.008  -0.002   0.003
  0.000   0.000  -0.000  -0.000  -0.000  -0.000   0.000   0.000   0.000  -0.000   0.000   0.000   0.000  -0.001   0.003  -0.000
  0.000  -0.000   0.000   0.000   0.000  -0.000   0.000   0.000   0.000   0.000   0.000   0.000  -0.001   0.000  -0.001   0.000
 -0.000   0.000   0.000  -0.000   0.000   0.000   0.000   0.000   0.000  -0.000   0.000   0.000   0.003  -0.001   0.000  -0.000


------------------------ aborting loop because EDIFF is reached ----------------------------------------





 total charge     

# of ion       s       p       d       tot
------------------------------------------
    1        0.465   0.423   8.397   9.285
    2        0.464   0.418   8.402   9.285
    3        0.467   0.419   8.386   9.272
    4        0.465   0.421   8.367   9.253
    5        0.465   0.421   8.367   9.253
    6        0.467   0.419   8.386   9.272
    7        0.464   0.418   8.402   9.285
    8        0.465   0.423   8.397   9.285
    9        0.325   0.314   4.927   5.566
   10        0.336   0.327   4.898   5.561
   11        0.335   0.325   4.919   5.580
   12        0.336   0.327   4.898   5.561
   13        0.335   0.325   4.919   5.580
   14        0.325   0.314   4.927   5.566
   15        1.264   1.835   0.353   3.452
   16        1.264   1.835   0.353   3.452
--------------------------------------------------
tot          8.245   8.965  97.297 114.507



 magnetization (x)

# of ion       s       p       d       tot
------------------------------------------
    1       -0.005  -0.002   0.237   0.230
    2       -0.006  -0.007   0.217   0.204
    3       -0.004  -0.006   0.224   0.214
    4       -0.005   0.005   0.262   0.262
    5       -0.005   0.005   0.262   0.262
    6       -0.004  -0.006   0.224   0.214
    7       -0.006  -0.007   0.217   0.204
    8       -0.005  -0.002   0.237   0.230
    9        0.028   0.035   3.549   3.612
   10       -0.031  -0.063  -3.511  -3.605
   11        0.028   0.046   3.521   3.596
   12       -0.031  -0.063  -3.511  -3.605
   13        0.028   0.046   3.521   3.596
   14        0.028   0.035   3.549   3.612
   15       -0.001  -0.032  -0.006  -0.039
   16       -0.001  -0.032  -0.006  -0.039
--------------------------------------------------
tot          0.006  -0.047   8.986   8.944

    CHARGE:  cpu time    0.7206: real time    0.7214
    FORLOC:  cpu time    0.0080: real time    0.0080
    FORNL :  cpu time    5.0849: real time    5.1023
    STRESS:  cpu time   15.2206: real time   15.2749
    FORCOR:  cpu time    0.1013: real time    0.1014
    FORHAR:  cpu time    0.0168: real time    0.0168
    MIXING:  cpu time    0.0029: real time    0.0029
    OFIELD:  cpu time    0.0000: real time    0.0000

  FORCE on cell =-STRESS in cart. coord.  units (eV):
  Direction    XX          YY          ZZ          XY          YZ          ZX
  --------------------------------------------------------------------------------------
  Alpha Z   531.45149   531.45149   531.45149
  Ewald   -3134.64784 -3134.64784 -3134.64784    -0.00000    -0.00000     0.00000
  Hartree   939.26095   939.26095   941.08322    -0.00000    -0.00000    -0.00000
  E(xc)    -671.24514  -671.24514  -671.91003    -0.00000    -0.00000     0.00000
  Local    -159.60386  -159.60386  -167.38032    -0.00000    -0.00000     0.00000
  n-local  -147.08103  -143.17449  -145.55663    -0.32360    -0.69368     0.03006
  augment  1578.79348  1578.79348  1583.32525    -0.00000    -0.00000     0.00000
  Kinetic  1051.87963  1066.73824  1067.29176     1.56074     1.21151     1.01461
  Fock        0.00000     0.00000     0.00000     0.00000     0.00000     0.00000
  -------------------------------------------------------------------------------------
  Total      -1.80974    -1.80974     3.65690     0.00000     0.00000    -0.00000
  in kB     -13.69438   -13.69438    27.67196     0.00000     0.00000    -0.00000
  external pressure =        0.09 kB  Pullay stress =        0.00 kB


 VOLUME and BASIS-vectors are now :
 -----------------------------------------------------------------------------
  energy-cutoff  :      550.00
  volume of cell :      211.73
      direct lattice vectors                 reciprocal lattice vectors
     5.960205622  0.000000000  0.000000000     0.167779446  0.000000000  0.000000000
     0.000000000  5.960205622  0.000000000     0.000000000  0.167779446  0.000000000
     0.000000000  0.000000000  5.960205622     0.000000000  0.000000000  0.167779446

  length of vectors
     5.960205622  5.960205622  5.960205622     0.167779446  0.167779446  0.167779446


 FORCES acting on ions
    electron-ion (+dipol)            ewald-force                    non-local-force                 convergence-correction
 -----------------------------------------------------------------------------------------------
   0.107E-11 0.564E-12 0.833E-12   0.782E-13 0.000E+00 -.284E-13   0.000E+00 0.529E-22 0.000E+00   -.240E-13 0.219E-13 -.283E-12
   -.210E-12 -.718E-12 -.146E-11   0.497E-13 0.284E-13 -.284E-13   -.662E-22 -.529E-22 0.000E+00   0.481E-13 0.440E-13 -.315E-12
   0.699E-12 0.342E-11 0.808E-12   0.639E-13 0.533E-13 -.355E-13   0.000E+00 0.000E+00 0.000E+00   -.110E-13 0.144E-13 -.246E-12
   0.672E-12 0.413E-11 -.816E-11   0.639E-13 0.391E-13 0.249E-13   0.000E+00 -.529E-22 -.529E-22   0.288E-13 0.140E-13 -.260E-12
   0.674E-12 0.551E-12 0.204E-11   0.782E-13 0.107E-13 -.320E-13   0.529E-22 -.529E-22 0.000E+00   -.317E-13 0.419E-13 0.158E-12
   0.561E-12 -.131E-11 0.607E-11   0.497E-13 0.249E-13 -.497E-13   0.000E+00 0.000E+00 0.000E+00   0.399E-13 0.207E-13 0.219E-12
   0.469E-12 0.391E-11 0.182E-11   0.639E-13 0.568E-13 -.426E-13   -.132E-22 -.529E-22 0.251E-21   -.385E-13 0.131E-13 0.153E-12
   0.175E-11 -.372E-11 0.646E-11   0.639E-13 0.284E-13 -.284E-13   0.000E+00 0.000E+00 0.000E+00   0.446E-13 0.244E-13 0.182E-12
   0.225E-12 0.747E-14 -.961E-12   -.883E-13 -.406E-13 -.289E-13   0.265E-22 0.159E-21 -.794E-22   -.497E-13 0.505E-13 0.459E-13
   0.211E-12 0.157E-12 0.198E-12   -.872E-13 -.414E-13 0.282E-13   0.000E+00 0.000E+00 0.265E-22   -.411E-13 -.635E-13 0.387E-13
   -.310E-13 0.188E-12 -.728E-13   -.810E-13 -.392E-13 0.279E-13   -.265E-22 0.265E-22 -.529E-22   0.819E-13 -.533E-13 0.651E-13
   -.368E-13 -.250E-13 0.208E-12   -.881E-13 -.571E-13 0.443E-13   0.000E+00 0.000E+00 0.000E+00   0.101E-12 0.399E-13 -.294E-13
   0.223E-12 -.109E-13 0.890E-12   -.846E-13 -.611E-13 0.435E-13   0.126E-21 0.265E-22 -.529E-22   -.681E-13 0.382E-13 -.644E-13
   -.297E-13 0.189E-12 0.197E-12   -.843E-13 -.434E-13 0.293E-13   0.265E-22 -.106E-21 -.794E-22   0.111E-12 -.260E-13 -.304E-13
   -.337E-13 -.563E-14 -.212E-13   0.293E-13 0.671E-14 0.123E-13   0.000E+00 0.000E+00 0.000E+00   0.186E-13 0.190E-13 0.172E-13
   -.305E-13 -.262E-12 -.633E-12   0.306E-13 0.788E-14 0.136E-13   0.000E+00 0.000E+00 0.000E+00   -.221E-13 -.160E-13 -.171E-13
 -----------------------------------------------------------------------------------------------
   0.619E-11 0.706E-11 0.822E-11   0.580E-13 -.268E-13 -.502E-13   0.126E-21 -.529E-22 -.397E-22   0.188E-12 0.183E-12 -.365E-12


 POSITION                                       TOTAL-FORCE (eV/Angst)
 -----------------------------------------------------------------------------------
      1.49005      1.49005      1.49005         0.000000     -0.000000      0.000000
      4.47015      1.49005      1.49005         0.000000      0.000000      0.000000
      1.49005      4.47015      1.49005         0.000000     -0.000000     -0.000000
      4.47015      4.47015      1.49005         0.000000     -0.000000     -0.000000
      1.49005      1.49005      4.47015        -0.000000      0.000000      0.000000
      4.47015      1.49005      4.47015        -0.000000      0.000000     -0.000000
      1.49005      4.47015      4.47015        -0.000000     -0.000000      0.000000
      4.47015      4.47015      4.47015        -0.000000     -0.000000     -0.000000
      2.98010      0.00000      0.00000        -0.000000      0.000000      0.000000
      2.98010      2.98010      0.00000        -0.000000      0.000000      0.000000
      0.00000      2.98010      0.00000        -0.000000      0.000000      0.000000
      0.00000      0.00000      2.98010        -0.000000      0.000000      0.000000
      2.98010      0.00000      2.98010        -0.000000      0.000000      0.000000
      0.00000      2.98010      2.98010        -0.000000      0.000000      0.000000
      0.00000      0.00000      0.00000        -0.000000      0.000000      0.000000
      2.98010      2.98010      2.98010        -0.000000      0.000000      0.000000
 -----------------------------------------------------------------------------------
    total drift:                                0.000000      0.000000      0.000000


--------------------------------------------------------------------------------------------------------



  FREE ENERGIE OF THE ION-ELECTRON SYSTEM (eV)
  ---------------------------------------------------
  free  energy   TOTEN  =      -102.80928862 eV

  energy  without entropy=     -102.80800750  energy(sigma->0) =     -102.80864806



--------------------------------------------------------------------------------------------------------


    POTLOK:  cpu time    0.1352: real time    0.1353


--------------------------------------------------------------------------------------------------------




--------------------------------------------------------------------------------------------------------


  
 reached required accuracy - stopping structural energy minimisation
     LOOP+:  cpu time  351.6641: real time  353.6265
    4ORBIT:  cpu time    0.0000: real time    0.0000



 total charge     

# of ion       s       p       d       tot
------------------------------------------
    1        0.465   0.423   8.397   9.285
    2        0.464   0.418   8.402   9.285
    3        0.467   0.419   8.386   9.272
    4        0.465   0.421   8.367   9.253
    5        0.465   0.421   8.367   9.253
    6        0.467   0.419   8.386   9.272
    7        0.464   0.418   8.402   9.285
    8        0.465   0.423   8.397   9.285
    9        0.325   0.314   4.927   5.566
   10        0.336   0.327   4.898   5.561
   11        0.335   0.325   4.919   5.580
   12        0.336   0.327   4.898   5.561
   13        0.335   0.325   4.919   5.580
   14        0.325   0.314   4.927   5.566
   15        1.264   1.835   0.353   3.452
   16        1.264   1.835   0.353   3.452
--------------------------------------------------
tot          8.245   8.965  97.297 114.507



 magnetization (x)

# of ion       s       p       d       tot
------------------------------------------
    1       -0.005  -0.002   0.237   0.230
    2       -0.006  -0.007   0.217   0.204
    3       -0.004  -0.006   0.224   0.214
    4       -0.005   0.005   0.262   0.262
    5       -0.005   0.005   0.262   0.262
    6       -0.004  -0.006   0.224   0.214
    7       -0.006  -0.007   0.217   0.204
    8       -0.005  -0.002   0.237   0.230
    9        0.028   0.035   3.549   3.612
   10       -0.031  -0.063  -3.511  -3.605
   11        0.028   0.046   3.521   3.596
   12       -0.031  -0.063  -3.511  -3.605
   13        0.028   0.046   3.521   3.596
   14        0.028   0.035   3.549   3.612
   15       -0.001  -0.032  -0.006  -0.039
   16       -0.001  -0.032  -0.006  -0.039
--------------------------------------------------
tot          0.006  -0.047   8.986   8.944


 total amount of memory used by VASP MPI-rank0   103557. kBytes
=======================================================================

   base      :      30000. kBytes
   nonlr-proj:       6835. kBytes
   fftplans  :       1269. kBytes
   grid      :       6573. kBytes
   one-center:        497. kBytes
   wavefun   :      58383. kBytes

  
  
 General timing and accounting informations for this job:
 ========================================================
  
                  Total CPU time used (sec):      362.317
                            User time (sec):      343.577
                          System time (sec):       18.741
                         Elapsed time (sec):      366.701
  
                   Maximum memory used (kb):      136876.
                   Average memory used (kb):           0.
  
                          Minor page faults:      6854326
                          Major page faults:            7
                 Voluntary context switches:         1770
