 vasp.5.4.4.18Apr17-6-g9f103f2a35 (build May 21 2018 20:56:50) complex           
 executed on             LinuxGNU date 2021.10.15  15:50:17
 running on   12 total cores
 distrk:  each k-point on   12 cores,    1 groups
 distr:  one band on NCORES_PER_BAND=   1 cores,   12 groups


--------------------------------------------------------------------------------------------------------


 INCAR:
 POTCAR:    PAW_PBE Ni 02Aug2007                  
 POTCAR:    PAW_PBE Mn 06Sep2000                  
 POTCAR:    PAW_PBE In 08Apr2002                  

 ----------------------------------------------------------------------------- 
|                                                                             |
|           W    W    AA    RRRRR   N    N  II  N    N   GGGG   !!!           |
|           W    W   A  A   R    R  NN   N  II  NN   N  G    G  !!!           |
|           W    W  A    A  R    R  N N  N  II  N N  N  G       !!!           |
|           W WW W  AAAAAA  RRRRR   N  N N  II  N  N N  G  GGG   !            |
|           WW  WW  A    A  R   R   N   NN  II  N   NN  G    G                |
|           W    W  A    A  R    R  N    N  II  N    N   GGGG   !!!           |
|                                                                             |
|      For optimal performance we recommend to set                            |
|        NCORE= 4 - approx SQRT( number of cores)                             |
|      NCORE specifies how many cores store one orbital (NPAR=cpu/NCORE).     |
|      This setting can  greatly improve the performance of VASP for DFT.     |
|      The default,   NCORE=1            might be grossly inefficient         |
|      on modern multi-core architectures or massively parallel machines.     |
|      Do your own testing !!!!                                               |
|      Unfortunately you need to use the default for GW and RPA calculations. |
|      (for HF NCORE is supported but not extensively tested yet)             |
|                                                                             |
 ----------------------------------------------------------------------------- 

 POTCAR:    PAW_PBE Ni 02Aug2007                  
   VRHFIN =Ni:                                                                  
   LEXCH  = PE                                                                  
   EATOM  =  1077.6739 eV,   79.2068 Ry                                         
                                                                                
   TITEL  = PAW_PBE Ni 02Aug2007                                                
   LULTRA =        F    use ultrasoft PP ?                                      
   IUNSCR =        1    unscreen: 0-lin 1-nonlin 2-no                           
   RPACOR =    2.000    partial core radius                                     
   POMASS =   58.690; ZVAL   =   10.000    mass and valenz                      
   RCORE  =    2.300    outmost cutoff radius                                   
   RWIGS  =    2.430; RWIGS  =    1.286    wigner-seitz radius (au A)           
   ENMAX  =  269.532; ENMIN  =  202.149 eV                                      
   RCLOC  =    1.201    cutoff for local pot                                    
   LCOR   =        T    correct aug charges                                     
   LPAW   =        T    paw PP                                                  
   EAUG   =  544.565                                                            
   DEXC   =    0.000                                                            
   RMAX   =    2.357    core radius for proj-oper                               
   RAUG   =    1.300    factor for augmentation sphere                          
   RDEP   =    2.390    radius for radial grids                                 
   RDEPT  =    1.838    core radius for aug-charge                              
                                                                                
   Atomic configuration                                                         
    9 entries                                                                   
     n  l   j            E        occ.                                          
     1  0  0.50     -8206.4253   2.0000                                         
     2  0  0.50      -976.1748   2.0000                                         
     2  1  1.50      -839.0571   6.0000                                         
     3  0  0.50      -105.9991   2.0000                                         
     3  1  1.50       -66.4603   6.0000                                         
     3  2  2.50        -4.6458   9.0000                                         
     4  0  0.50        -4.4926   1.0000                                         
     4  1  1.50        -4.0817   0.0000                                         
     4  3  2.50        -1.3606   0.0000                                         
   Description                                                                  
     l       E           TYP  RCUT    TYP  RCUT                                 
     2     -4.6457903     23  2.300                                             
     2     -6.0063729     23  2.300                                             
     0     -4.4925590     23  2.300                                             
     0      5.0102601     23  2.300                                             
     1     -2.7211652     23  2.300                                             
     1     16.5183231     23  2.300                                             
  local pseudopotential read in
  partial core-charges read in
  partial kinetic energy density read in
  atomic valenz-charges read in
  non local Contribution for L=           2  read in
    real space projection operators read in
  non local Contribution for L=           2  read in
    real space projection operators read in
  non local Contribution for L=           0  read in
    real space projection operators read in
  non local Contribution for L=           0  read in
    real space projection operators read in
  non local Contribution for L=           1  read in
    real space projection operators read in
  non local Contribution for L=           1  read in
    real space projection operators read in
    PAW grid and wavefunctions read in

   number of l-projection  operators is LMAX  =           6
   number of lm-projection operators is LMMAX =          18

 POTCAR:    PAW_PBE Mn 06Sep2000                  
   VRHFIN =Mn: d6 s1                                                            
   LEXCH  = PE                                                                  
   EATOM  =   416.7541 eV,   30.6306 Ry                                         
                                                                                
   TITEL  = PAW_PBE Mn 06Sep2000                                                
   LULTRA =        F    use ultrasoft PP ?                                      
   IUNSCR =        1    unscreen: 0-lin 1-nonlin 2-no                           
   RPACOR =    2.000    partial core radius                                     
   POMASS =   54.938; ZVAL   =    7.000    mass and valenz                      
   RCORE  =    2.300    outmost cutoff radius                                   
   RWIGS  =    2.500; RWIGS  =    1.323    wigner-seitz radius (au A)           
   ENMAX  =  269.864; ENMIN  =  202.398 eV                                      
   RCLOC  =    1.725    cutoff for local pot                                    
   LCOR   =        T    correct aug charges                                     
   LPAW   =        T    paw PP                                                  
   EAUG   =  500.711                                                            
   DEXC   =    0.000                                                            
   RMAX   =    2.343    core radius for proj-oper                               
   RAUG   =    1.300    factor for augmentation sphere                          
   RDEP   =    2.338    radius for radial grids                                 
   RDEPT  =    1.911    core radius for aug-charge                              
                                                                                
   Atomic configuration                                                         
    9 entries                                                                   
     n  l   j            E        occ.                                          
     1  0  0.50     -6424.8288   2.0000                                         
     2  0  0.50      -739.1154   2.0000                                         
     2  1  1.50      -625.3949   6.0000                                         
     3  0  0.50       -81.6100   2.0000                                         
     3  1  1.50       -50.4667   6.0000                                         
     3  2  2.50        -3.3745   6.0000                                         
     4  0  0.50        -4.1331   1.0000                                         
     4  1  0.50        -4.0817   0.0000                                         
     4  3  2.50        -1.3606   0.0000                                         
   Description                                                                  
     l       E           TYP  RCUT    TYP  RCUT                                 
     2     -3.3744664     23  2.300                                             
     2     -4.7350490     23  2.300                                             
     0     -4.1331408     23  2.300                                             
     0      7.6656614     23  2.300                                             
     1     -2.7211652     23  2.300                                             
     1     20.4087390     23  2.300                                             
  local pseudopotential read in
  partial core-charges read in
  partial kinetic energy density read in
  atomic valenz-charges read in
  non local Contribution for L=           2  read in
    real space projection operators read in
  non local Contribution for L=           2  read in
    real space projection operators read in
  non local Contribution for L=           0  read in
    real space projection operators read in
  non local Contribution for L=           0  read in
    real space projection operators read in
  non local Contribution for L=           1  read in
    real space projection operators read in
  non local Contribution for L=           1  read in
    real space projection operators read in
    PAW grid and wavefunctions read in

   number of l-projection  operators is LMAX  =           6
   number of lm-projection operators is LMMAX =          18

 POTCAR:    PAW_PBE In 08Apr2002                  
   VRHFIN =In: s2p1                                                             
   LEXCH  = PE                                                                  
   EATOM  =    53.7908 eV,    3.9535 Ry                                         
                                                                                
   TITEL  = PAW_PBE In 08Apr2002                                                
   LULTRA =        F    use ultrasoft PP ?                                      
   IUNSCR =        1    unscreen: 0-lin 1-nonlin 2-no                           
   RPACOR =    2.400    partial core radius                                     
   POMASS =  114.820; ZVAL   =    3.000    mass and valenz                      
   RCORE  =    3.100    outmost cutoff radius                                   
   RWIGS  =    3.170; RWIGS  =    1.677    wigner-seitz radius (au A)           
   ENMAX  =   95.934; ENMIN  =   71.951 eV                                      
   ICORE  =        3    local potential                                         
   LCOR   =        T    correct aug charges                                     
   LPAW   =        T    paw PP                                                  
   EAUG   =  237.125                                                            
   DEXC   =    0.000                                                            
   RMAX   =    3.168    core radius for proj-oper                               
   RAUG   =    1.300    factor for augmentation sphere                          
   RDEP   =    3.187    radius for radial grids                                 
   RDEPT  =    2.711    core radius for aug-charge                              
                                                                                
   Atomic configuration                                                         
   13 entries                                                                   
     n  l   j            E        occ.                                          
     1  0  0.50    -27747.9169   2.0000                                         
     2  0  0.50     -4154.4438   2.0000                                         
     2  1  1.50     -3728.4305   6.0000                                         
     3  0  0.50      -788.3680   2.0000                                         
     3  1  1.50      -648.9215   6.0000                                         
     3  2  2.50      -432.5893  10.0000                                         
     4  0  0.50      -119.6363   2.0000                                         
     4  1  1.50       -78.1086   6.0000                                         
     4  2  2.50       -18.6227  10.0000                                         
     5  0  0.50        -8.2107   2.0000                                         
     5  1  0.50        -2.5185   1.0000                                         
     5  2  2.50        -1.3606   0.0000                                         
     4  3  2.50        -2.7212   0.0000                                         
   Description                                                                  
     l       E           TYP  RCUT    TYP  RCUT                                 
     0     -8.2107306     23  3.100                                             
     0     -6.1485975     23  3.100                                             
     1     -2.5184867     23  3.100                                             
     1      3.2427302     23  3.100                                             
     2     -1.3605826     23  3.100                                             
     3     -1.3605826     23  3.100                                             
  local pseudopotential read in
  partial core-charges read in
  partial kinetic energy density read in
  atomic valenz-charges read in
  non local Contribution for L=           0  read in
    real space projection operators read in
  non local Contribution for L=           0  read in
    real space projection operators read in
  non local Contribution for L=           1  read in
    real space projection operators read in
  non local Contribution for L=           1  read in
    real space projection operators read in
  non local Contribution for L=           2  read in
    real space projection operators read in
    PAW grid and wavefunctions read in

   number of l-projection  operators is LMAX  =           5
   number of lm-projection operators is LMMAX =          13

 Optimization of the real space projectors (new method)

 maximal supplied QI-value         = 16.25
 optimisation between [QCUT,QGAM] = [ 11.86, 23.89] = [ 39.41,159.82] Ry 
 Optimized for a Real-space Cutoff    1.33 Angstroem

   l    n(q)    QCUT    max X(q) W(low)/X(q) W(high)/X(q)  e(spline) 
   2      9    11.864    60.317    0.21E-03    0.51E-03    0.25E-06
   2      9    11.864    55.921    0.21E-03    0.51E-03    0.26E-06
   0      9    11.864    51.690    0.22E-03    0.30E-04    0.17E-06
   0      9    11.864    30.015    0.20E-03    0.28E-04    0.15E-06
   1      9    11.864    18.849    0.76E-04    0.33E-03    0.17E-06
   1      9    11.864    14.624    0.60E-04    0.28E-03    0.15E-06
 Optimization of the real space projectors (new method)

 maximal supplied QI-value         = 16.25
 optimisation between [QCUT,QGAM] = [ 11.86, 23.89] = [ 39.41,159.82] Ry 
 Optimized for a Real-space Cutoff    1.36 Angstroem

   l    n(q)    QCUT    max X(q) W(low)/X(q) W(high)/X(q)  e(spline) 
   2      9    11.864   110.144    0.49E-03    0.50E-03    0.21E-06
   2      9    11.864   103.200    0.49E-03    0.51E-03    0.22E-06
   0     10    11.864    68.437    0.12E-03    0.41E-04    0.21E-06
   0     10    11.864    33.971    0.11E-03    0.36E-04    0.19E-06
   1      9    11.864    17.065    0.24E-03    0.26E-03    0.93E-07
   1      9    11.864    12.540    0.19E-03    0.20E-03    0.80E-07
 Optimization of the real space projectors (new method)

 maximal supplied QI-value         = 12.09
 optimisation between [QCUT,QGAM] = [ 11.97, 23.95] = [ 40.14,160.58] Ry 
 Optimized for a Real-space Cutoff    1.63 Angstroem

   l    n(q)    QCUT    max X(q) W(low)/X(q) W(high)/X(q)  e(spline) 
   0     12    11.973   106.980    0.33E-03    0.16E-03    0.25E-05
   0     12    11.973    81.086    0.37E-03    0.18E-03    0.28E-05
   1     11    11.973    53.097    0.22E-03    0.42E-03    0.40E-05
   1     11    11.973    32.621    0.20E-03    0.40E-03    0.37E-05
   2     11    11.973     8.820    0.30E-03    0.17E-03    0.41E-06
  PAW_PBE Ni 02Aug2007                  :
 energy of atom  1       EATOM=-1077.6739
 kinetic energy error for atom=    0.0027 (will be added to EATOM!!)
  PAW_PBE Mn 06Sep2000                  :
 energy of atom  2       EATOM= -416.7541
 kinetic energy error for atom=    0.0022 (will be added to EATOM!!)
  PAW_PBE In 08Apr2002                  :
 energy of atom  3       EATOM=  -53.7908
 kinetic energy error for atom=    0.0000 (will be added to EATOM!!)


 POSCAR: Ni2MnIn                                 
  positions in direct lattice
  velocities in cartesian coordinates
 exchange correlation table for  LEXCH =        8
   RHO(1)=    0.500       N(1)  =     2000
   RHO(2)=  100.500       N(2)  =     4000



--------------------------------------------------------------------------------------------------------


 ion  position               nearest neighbor table
   1  0.250  0.250  0.250-   9 2.58  10 2.58  11 2.58  12 2.58  13 2.58  14 2.58  15 2.58  16 2.58
                             5 2.97   2 2.97   3 2.97   5 2.97   3 2.97   2 2.97
   2  0.750  0.250  0.250-   9 2.58  10 2.58  11 2.58  12 2.58  13 2.58  14 2.58  15 2.58  16 2.58
                             6 2.97   1 2.97   4 2.97   6 2.97   4 2.97   1 2.97
   3  0.250  0.750  0.250-   9 2.58  10 2.58  11 2.58  12 2.58  13 2.58  14 2.58  15 2.58  16 2.58
                             7 2.97   1 2.97   4 2.97   7 2.97   1 2.97   4 2.97
   4  0.750  0.750  0.250-   9 2.58  10 2.58  11 2.58  12 2.58  13 2.58  14 2.58  15 2.58  16 2.58
                             8 2.97   2 2.97   3 2.97   8 2.97   2 2.97   3 2.97
   5  0.250  0.250  0.750-   9 2.58  10 2.58  11 2.58  12 2.58  13 2.58  14 2.58  15 2.58  16 2.58
                             7 2.97   1 2.97   6 2.97   1 2.97   7 2.97   6 2.97
   6  0.750  0.250  0.750-   9 2.58  10 2.58  11 2.58  12 2.58  13 2.58  14 2.58  15 2.58  16 2.58
                             8 2.97   2 2.97   5 2.97   2 2.97   8 2.97   5 2.97
   7  0.250  0.750  0.750-   9 2.58  10 2.58  11 2.58  12 2.58  13 2.58  14 2.58  15 2.58  16 2.58
                             8 2.97   3 2.97   5 2.97   3 2.97   5 2.97   8 2.97
   8  0.750  0.750  0.750-   9 2.58  10 2.58  11 2.58  12 2.58  13 2.58  14 2.58  15 2.58  16 2.58
                             7 2.97   4 2.97   6 2.97   4 2.97   6 2.97   7 2.97
   9  0.500  0.000  0.000-   1 2.58   2 2.58   3 2.58   4 2.58   5 2.58   6 2.58   7 2.58   8 2.58
                            10 2.97  13 2.97  15 2.97  13 2.97  10 2.97  15 2.97
  10  0.500  0.500  0.000-   1 2.58   2 2.58   3 2.58   4 2.58   5 2.58   6 2.58   7 2.58   8 2.58
                             9 2.97  11 2.97  16 2.97  16 2.97   9 2.97  11 2.97
  11  0.000  0.500  0.000-   1 2.58   2 2.58   3 2.58   4 2.58   5 2.58   6 2.58   7 2.58   8 2.58
                            10 2.97  14 2.97  15 2.97  14 2.97  15 2.97  10 2.97
  12  0.000  0.000  0.500-   1 2.58   2 2.58   3 2.58   4 2.58   5 2.58   6 2.58   7 2.58   8 2.58
                            13 2.97  14 2.97  15 2.97  15 2.97  14 2.97  13 2.97
  13  0.500  0.000  0.500-   1 2.58   2 2.58   3 2.58   4 2.58   5 2.58   6 2.58   7 2.58   8 2.58
                             9 2.97  12 2.97  16 2.97   9 2.97  16 2.97  12 2.97
  14  0.000  0.500  0.500-   1 2.58   2 2.58   3 2.58   4 2.58   5 2.58   6 2.58   7 2.58   8 2.58
                            11 2.97  12 2.97  16 2.97  11 2.97  12 2.97  16 2.97
  15  0.000  0.000  0.000-   1 2.58   2 2.58   3 2.58   4 2.58   5 2.58   6 2.58   7 2.58   8 2.58
                             9 2.97  11 2.97  12 2.97  12 2.97  11 2.97   9 2.97
  16  0.500  0.500  0.500-   1 2.58   2 2.58   3 2.58   4 2.58   5 2.58   6 2.58   7 2.58   8 2.58
                            10 2.97  13 2.97  14 2.97  10 2.97  13 2.97  14 2.97

  LATTYP: Found a simple cubic cell.
 ALAT       =     5.9495064731
  
  Lattice vectors:
  
 A1 = (   5.9495064731,   0.0000000000,   0.0000000000)
 A2 = (   0.0000000000,   5.9495064731,   0.0000000000)
 A3 = (   0.0000000000,   0.0000000000,   5.9495064731)


Analysis of symmetry for initial positions (statically):
=====================================================================
 Subroutine PRICEL returns following result:
 
  LATTYP: Found a body centered cubic cell.
 ALAT       =     5.9495064731
  
  Lattice vectors:
  
 A1 = (   2.9747532366,   2.9747532366,   2.9747532366)
 A2 = (   2.9747532366,  -2.9747532366,  -2.9747532366)
 A3 = (  -2.9747532366,   2.9747532366,  -2.9747532366)
 
   2 primitive cells build up your supercell.
 

 Routine SETGRP: Setting up the symmetry group for a 
 simple cubic supercell.


 Subroutine GETGRP returns: Found 48 space group operations
 (whereof 48 operations were pure point group operations)
 out of a pool of 48 trial point group operations.


The static configuration has the point symmetry O_h .


Analysis of symmetry for dynamics (positions and initial velocities):
=====================================================================
 Subroutine PRICEL returns following result:
 
  LATTYP: Found a body centered cubic cell.
 ALAT       =     5.9495064731
  
  Lattice vectors:
  
 A1 = (   2.9747532366,   2.9747532366,   2.9747532366)
 A2 = (   2.9747532366,  -2.9747532366,  -2.9747532366)
 A3 = (  -2.9747532366,   2.9747532366,  -2.9747532366)
 
   2 primitive cells build up your supercell.
 

 Routine SETGRP: Setting up the symmetry group for a 
 simple cubic supercell.


 Subroutine GETGRP returns: Found 48 space group operations
 (whereof 48 operations were pure point group operations)
 out of a pool of 48 trial point group operations.


The dynamic configuration has the point symmetry O_h .


Analysis of structural, dynamic, and magnetic symmetry:
=====================================================================
 Subroutine PRICEL returns:
 Original cell was already a primitive cell.
 

 Routine SETGRP: Setting up the symmetry group for a 
 simple cubic supercell.


 Subroutine GETGRP returns: Found 48 space group operations
 (whereof 48 operations were pure point group operations)
 out of a pool of 48 trial point group operations.


The magnetic configuration has the point symmetry O_h .


 Subroutine INISYM returns: Found 48 space group operations
 (whereof 48 operations are pure point group operations),
 and found     1 'primitive' translations



 KPOINTS: k-points                                

Automatic generation of k-mesh.
Space group operators:
 irot       det(A)        alpha          n_x          n_y          n_z        tau_x        tau_y        tau_z
    1     1.000000     0.000001     1.000000     0.000000     0.000000     0.000000     0.000000     0.000000
    2    -1.000000     0.000001     1.000000     0.000000     0.000000     0.000000     0.000000     0.000000
    3     1.000000   120.000000    -0.577350    -0.577350    -0.577350     0.000000     0.000000     0.000000
    4    -1.000000   120.000000    -0.577350    -0.577350    -0.577350     0.000000     0.000000     0.000000
    5     1.000000   120.000000     0.577350     0.577350     0.577350     0.000000     0.000000     0.000000
    6    -1.000000   120.000000     0.577350     0.577350     0.577350     0.000000     0.000000     0.000000
    7     1.000000    90.000000     0.000000     0.000000    -1.000000     0.000000     0.000000     0.000000
    8    -1.000000    90.000000     0.000000     0.000000    -1.000000     0.000000     0.000000     0.000000
    9     1.000000   180.000000     0.000000     0.707107     0.707107     0.000000     0.000000     0.000000
   10    -1.000000   180.000000     0.000000     0.707107     0.707107     0.000000     0.000000     0.000000
   11     1.000000    90.000000     0.000000     1.000000     0.000000     0.000000     0.000000     0.000000
   12    -1.000000    90.000000     0.000000     1.000000     0.000000     0.000000     0.000000     0.000000
   13     1.000000   180.000000     0.000000     0.000000     1.000000     0.000000     0.000000     0.000000
   14    -1.000000   180.000000     0.000000     0.000000     1.000000     0.000000     0.000000     0.000000
   15     1.000000   120.000000    -0.577350     0.577350     0.577350     0.000000     0.000000     0.000000
   16    -1.000000   120.000000    -0.577350     0.577350     0.577350     0.000000     0.000000     0.000000
   17     1.000000   120.000000    -0.577350     0.577350    -0.577350     0.000000     0.000000     0.000000
   18    -1.000000   120.000000    -0.577350     0.577350    -0.577350     0.000000     0.000000     0.000000
   19     1.000000    90.000000     0.000000     0.000000     1.000000     0.000000     0.000000     0.000000
   20    -1.000000    90.000000     0.000000     0.000000     1.000000     0.000000     0.000000     0.000000
   21     1.000000    90.000000    -1.000000     0.000000     0.000000     0.000000     0.000000     0.000000
   22    -1.000000    90.000000    -1.000000     0.000000     0.000000     0.000000     0.000000     0.000000
   23     1.000000   180.000000     0.707107     0.000000     0.707107     0.000000     0.000000     0.000000
   24    -1.000000   180.000000     0.707107     0.000000     0.707107     0.000000     0.000000     0.000000
   25     1.000000   120.000000     0.577350    -0.577350     0.577350     0.000000     0.000000     0.000000
   26    -1.000000   120.000000     0.577350    -0.577350     0.577350     0.000000     0.000000     0.000000
   27     1.000000   120.000000    -0.577350    -0.577350     0.577350     0.000000     0.000000     0.000000
   28    -1.000000   120.000000    -0.577350    -0.577350     0.577350     0.000000     0.000000     0.000000
   29     1.000000   180.000000     1.000000     0.000000     0.000000     0.000000     0.000000     0.000000
   30    -1.000000   180.000000     1.000000     0.000000     0.000000     0.000000     0.000000     0.000000
   31     1.000000    90.000000     0.000000    -1.000000     0.000000     0.000000     0.000000     0.000000
   32    -1.000000    90.000000     0.000000    -1.000000     0.000000     0.000000     0.000000     0.000000
   33     1.000000   180.000000     0.707107     0.707107     0.000000     0.000000     0.000000     0.000000
   34    -1.000000   180.000000     0.707107     0.707107     0.000000     0.000000     0.000000     0.000000
   35     1.000000    90.000000     1.000000     0.000000     0.000000     0.000000     0.000000     0.000000
   36    -1.000000    90.000000     1.000000     0.000000     0.000000     0.000000     0.000000     0.000000
   37     1.000000   120.000000     0.577350    -0.577350    -0.577350     0.000000     0.000000     0.000000
   38    -1.000000   120.000000     0.577350    -0.577350    -0.577350     0.000000     0.000000     0.000000
   39     1.000000   180.000000     0.000000     1.000000     0.000000     0.000000     0.000000     0.000000
   40    -1.000000   180.000000     0.000000     1.000000     0.000000     0.000000     0.000000     0.000000
   41     1.000000   120.000000     0.577350     0.577350    -0.577350     0.000000     0.000000     0.000000
   42    -1.000000   120.000000     0.577350     0.577350    -0.577350     0.000000     0.000000     0.000000
   43     1.000000   180.000000     0.000000    -0.707107     0.707107     0.000000     0.000000     0.000000
   44    -1.000000   180.000000     0.000000    -0.707107     0.707107     0.000000     0.000000     0.000000
   45     1.000000   180.000000     0.707107    -0.707107     0.000000     0.000000     0.000000     0.000000
   46    -1.000000   180.000000     0.707107    -0.707107     0.000000     0.000000     0.000000     0.000000
   47     1.000000   180.000000     0.707107     0.000000    -0.707107     0.000000     0.000000     0.000000
   48    -1.000000   180.000000     0.707107     0.000000    -0.707107     0.000000     0.000000     0.000000
 
 Subroutine IBZKPT returns following result:
 ===========================================
 
 Found     20 irreducible k-points:
 
 Following reciprocal coordinates:
            Coordinates               Weight
  0.000000  0.000000  0.000000      1.000000
  0.142857  0.000000  0.000000      6.000000
  0.285714  0.000000  0.000000      6.000000
  0.428571  0.000000  0.000000      6.000000
  0.142857  0.142857  0.000000     12.000000
  0.285714  0.142857  0.000000     24.000000
  0.428571  0.142857  0.000000     24.000000
  0.285714  0.285714  0.000000     12.000000
  0.428571  0.285714  0.000000     24.000000
  0.428571  0.428571  0.000000     12.000000
  0.142857  0.142857  0.142857      8.000000
  0.285714  0.142857  0.142857     24.000000
  0.428571  0.142857  0.142857     24.000000
  0.285714  0.285714  0.142857     24.000000
  0.428571  0.285714  0.142857     48.000000
  0.428571  0.428571  0.142857     24.000000
  0.285714  0.285714  0.285714      8.000000
  0.428571  0.285714  0.285714     24.000000
  0.428571  0.428571  0.285714     24.000000
  0.428571  0.428571  0.428571      8.000000
 
 Following cartesian coordinates:
            Coordinates               Weight
  0.000000  0.000000  0.000000      1.000000
  0.138307  0.000000  0.000000      6.000000
  0.276614  0.000000  0.000000      6.000000
  0.414920  0.000000  0.000000      6.000000
  0.138307  0.138307  0.000000     12.000000
  0.276614  0.138307  0.000000     24.000000
  0.414920  0.138307  0.000000     24.000000
  0.276614  0.276614  0.000000     12.000000
  0.414920  0.276614  0.000000     24.000000
  0.414920  0.414920  0.000000     12.000000
  0.138307  0.138307  0.138307      8.000000
  0.276614  0.138307  0.138307     24.000000
  0.414920  0.138307  0.138307     24.000000
  0.276614  0.276614  0.138307     24.000000
  0.414920  0.276614  0.138307     48.000000
  0.414920  0.414920  0.138307     24.000000
  0.276614  0.276614  0.276614      8.000000
  0.414920  0.276614  0.276614     24.000000
  0.414920  0.414920  0.276614     24.000000
  0.414920  0.414920  0.414920      8.000000
 


--------------------------------------------------------------------------------------------------------




 Dimension of arrays:
   k-points           NKPTS =     20   k-points in BZ     NKDIM =     20   number of bands    NBANDS=     84
   number of dos      NEDOS =    301   number of ions     NIONS =     16
   non local maximal  LDIM  =      6   non local SUM 2l+1 LMDIM =     18
   total plane-waves  NPLWV =  46656
   max r-space proj   IRMAX =   4066   max aug-charges    IRDMAX=  25189
   dimension x,y,z NGX =    36 NGY =   36 NGZ =   36
   dimension x,y,z NGXF=    72 NGYF=   72 NGZF=   72
   support grid    NGXF=    72 NGYF=   72 NGZF=   72
   ions per type =               8   6   2
   NGX,Y,Z   is equivalent  to a cutoff of  10.06, 10.06, 10.06 a.u.
   NGXF,Y,Z  is equivalent  to a cutoff of  20.12, 20.12, 20.12 a.u.

 SYSTEM =  Testrun for NiMnIn                      
 POSCAR =  Ni2MnIn                                 

 Startparameter for this run:
   NWRITE =      2    write-flag & timer
   PREC   = normal    normal or accurate (medium, high low for compatibility)
   ISTART =      0    job   : 0-new  1-cont  2-samecut
   ICHARG =      2    charge: 1-file 2-atom 10-const
   ISPIN  =      2    spin polarized calculation?
   LNONCOLLINEAR =      F non collinear calculations
   LSORBIT =      F    spin-orbit coupling
   INIWAV =      1    electr: 0-lowe 1-rand  2-diag
   LASPH  =      F    aspherical Exc in radial PAW
   METAGGA=      F    non-selfconsistent MetaGGA calc.

 Electronic Relaxation 1
   ENCUT  =  550.0 eV  40.42 Ry    6.36 a.u.  11.38 11.38 11.38*2*pi/ulx,y,z
   ENINI  =  550.0     initial cutoff
   ENAUG  =  544.6 eV  augmentation charge cutoff
   NELM   =     60;   NELMIN=  2; NELMDL= -5     # of ELM steps 
   EDIFF  = 0.1E-04   stopping-criterion for ELM
   LREAL  =      T    real-space projection
   NLSPLINE    = F    spline interpolate recip. space projectors
   LCOMPAT=      F    compatible to vasp.4.4
   GGA_COMPAT  = T    GGA compatible to vasp.4.4-vasp.4.6
   LMAXPAW     = -100 max onsite density
   LMAXMIX     =    2 max onsite mixed and CHGCAR
   VOSKOWN=      0    Vosko Wilk Nusair interpolation
   ROPT   =   -0.00050  -0.00050  -0.00050
 Ionic relaxation
   EDIFFG = -.1E-01   stopping-criterion for IOM
   NSW    =   1000    number of steps for IOM
   NBLOCK =      1;   KBLOCK =   1000    inner block; outer block 
   IBRION =      2    ionic relax: 0-MD 1-quasi-New 2-CG
   NFREE  =      1    steps in history (QN), initial steepest desc. (CG)
   ISIF   =      2    stress and relaxation
   IWAVPR =     11    prediction:  0-non 1-charg 2-wave 3-comb
   ISYM   =      2    0-nonsym 1-usesym 2-fastsym
   LCORR  =      T    Harris-Foulkes like correction to forces

   POTIM  = 0.5000    time-step for ionic-motion
   TEIN   =    0.0    initial temperature
   TEBEG  =    0.0;   TEEND  =   0.0 temperature during run
   SMASS  =  -3.00    Nose mass-parameter (am)
   estimated Nose-frequenzy (Omega)   =  0.10E-29 period in steps =****** mass=  -0.809E-27a.u.
   SCALEE = 1.0000    scale energy and forces
   NPACO  =    256;   APACO  = 16.0  distance and # of slots for P.C.
   PSTRESS=    0.0 pullay stress

  Mass of Ions in am
   POMASS =  58.69 54.94114.82
  Ionic Valenz
   ZVAL   =  10.00  7.00  3.00
  Atomic Wigner-Seitz radii
   RWIGS  =  -1.00 -1.00 -1.00
  virtual crystal weights 
   VCA    =   1.00  1.00  1.00
   NELECT =     128.0000    total number of electrons
   NUPDOWN=      -1.0000    fix difference up-down

 DOS related values:
   EMIN   =  10.00;   EMAX   =-10.00  energy-range for DOS
   EFERMI =   0.00
   ISMEAR =     0;   SIGMA  =   0.02  broadening in eV -4-tet -1-fermi 0-gaus

 Electronic relaxation 2 (details)
   IALGO  =     68    algorithm
   LDIAG  =      T    sub-space diagonalisation (order eigenvalues)
   LSUBROT=      F    optimize rotation matrix (better conditioning)
   TURBO    =      0    0=normal 1=particle mesh
   IRESTART =      0    0=no restart 2=restart with 2 vectors
   NREBOOT  =      0    no. of reboots
   NMIN     =      0    reboot dimension
   EREF     =   0.00    reference energy to select bands
   IMIX   =      4    mixing-type and parameters
     AMIX     =   0.40;   BMIX     =  1.00
     AMIX_MAG =   1.60;   BMIX_MAG =  1.00
     AMIN     =   0.10
     WC   =   100.;   INIMIX=   1;  MIXPRE=   1;  MAXMIX= -45

 Intra band minimization:
   WEIMIN = 0.0010     energy-eigenvalue tresh-hold
   EBREAK =  0.30E-07  absolut break condition
   DEPER  =   0.30     relativ break condition  

   TIME   =   0.40     timestep for ELM

  volume/ion in A,a.u.               =      13.16        88.82
  Fermi-wavevector in a.u.,A,eV,Ry     =   1.386747  2.620572 26.164916  1.923067
  Thomas-Fermi vector in A             =   2.511033

 Write flags
   LWAVE        =      F    write WAVECAR
   LDOWNSAMPLE  =      F    k-point downsampling of WAVECAR
   LCHARG       =      T    write CHGCAR
   LVTOT        =      F    write LOCPOT, total local potential
   LVHAR        =      F    write LOCPOT, Hartree potential only
   LELF         =      F    write electronic localiz. function (ELF)
   LORBIT       =     11    0 simple, 1 ext, 2 COOP (PROOUT), +10 PAW based schemes


 Dipole corrections
   LMONO  =      F    monopole corrections only (constant potential shift)
   LDIPOL =      F    correct potential (dipole corrections)
   IDIPOL =      0    1-x, 2-y, 3-z, 4-all directions 
   EPSILON=  1.0000000 bulk dielectric constant

 Exchange correlation treatment:
   GGA     =    --    GGA type
   LEXCH   =     8    internal setting for exchange type
   VOSKOWN=      0    Vosko Wilk Nusair interpolation
   LHFCALC =     F    Hartree Fock is set to
   LHFONE  =     F    Hartree Fock one center treatment
   AEXX    =    0.0000 exact exchange contribution

 Linear response parameters
   LEPSILON=     F    determine dielectric tensor
   LRPA    =     F    only Hartree local field effects (RPA)
   LNABLA  =     F    use nabla operator in PAW spheres
   LVEL    =     F    velocity operator in full k-point grid
   LINTERFAST=   F  fast interpolation
   KINTER  =     0    interpolate to denser k-point grid
   CSHIFT  =0.1000    complex shift for real part using Kramers Kronig
   OMEGAMAX=  -1.0    maximum frequency
   DEG_THRESHOLD= 0.2000000E-02 threshold for treating states as degnerate
   RTIME   =   -0.100 relaxation time in fs
  (WPLASMAI=    0.000 imaginary part of plasma frequency in eV, 0.658/RTIME)
   DFIELD  = 0.0000000 0.0000000 0.0000000 field for delta impulse in time

 Orbital magnetization related:
   ORBITALMAG=     F  switch on orbital magnetization
   LCHIMAG   =     F  perturbation theory with respect to B field
   DQ        =  0.001000  dq finite difference perturbation B field
   LLRAUG    =     F  two centre corrections for induced B field



--------------------------------------------------------------------------------------------------------


 conjugate gradient relaxation of ions
 charge density and potential will be updated during run
 spin polarized calculation
 RMM-DIIS sequential band-by-band and
  variant of blocked Davidson during initial phase
 perform sub-space diagonalisation
    before iterative eigenvector-optimisation
 modified Broyden-mixing scheme, WC =      100.0
 initial mixing is a Kerker type mixing with AMIX =  0.4000 and BMIX =      1.0000
 Hartree-type preconditioning will be used
 using additional bands           20
 real space projection scheme for non local part
 use partial core corrections
 calculate Harris-corrections to forces   (improved forces if not selfconsistent)
 use gradient corrections 
 use of overlap-Matrix (Vanderbilt PP)
 Gauss-broadening in eV      SIGMA  =   0.02


--------------------------------------------------------------------------------------------------------


  energy-cutoff  :      550.00
  volume of cell :      210.59
      direct lattice vectors                 reciprocal lattice vectors
     5.949506473  0.000000000  0.000000000     0.168081168  0.000000000  0.000000000
     0.000000000  5.949506473  0.000000000     0.000000000  0.168081168  0.000000000
     0.000000000  0.000000000  5.949506473     0.000000000  0.000000000  0.168081168

  length of vectors
     5.949506473  5.949506473  5.949506473     0.168081168  0.168081168  0.168081168



 k-points in units of 2pi/SCALE and weight: k-points                                
   0.00000000  0.00000000  0.00000000       0.003
   0.13830679  0.00000000  0.00000000       0.017
   0.27661358  0.00000000  0.00000000       0.017
   0.41492037  0.00000000  0.00000000       0.017
   0.13830679  0.13830679  0.00000000       0.035
   0.27661358  0.13830679  0.00000000       0.070
   0.41492037  0.13830679  0.00000000       0.070
   0.27661358  0.27661358  0.00000000       0.035
   0.41492037  0.27661358  0.00000000       0.070
   0.41492037  0.41492037  0.00000000       0.035
   0.13830679  0.13830679  0.13830679       0.023
   0.27661358  0.13830679  0.13830679       0.070
   0.41492037  0.13830679  0.13830679       0.070
   0.27661358  0.27661358  0.13830679       0.070
   0.41492037  0.27661358  0.13830679       0.140
   0.41492037  0.41492037  0.13830679       0.070
   0.27661358  0.27661358  0.27661358       0.023
   0.41492037  0.27661358  0.27661358       0.070
   0.41492037  0.41492037  0.27661358       0.070
   0.41492037  0.41492037  0.41492037       0.023

 k-points in reciprocal lattice and weights: k-points                                
   0.00000000  0.00000000  0.00000000       0.003
   0.14285714  0.00000000  0.00000000       0.017
   0.28571429  0.00000000  0.00000000       0.017
   0.42857143  0.00000000  0.00000000       0.017
   0.14285714  0.14285714  0.00000000       0.035
   0.28571429  0.14285714  0.00000000       0.070
   0.42857143  0.14285714  0.00000000       0.070
   0.28571429  0.28571429  0.00000000       0.035
   0.42857143  0.28571429  0.00000000       0.070
   0.42857143  0.42857143  0.00000000       0.035
   0.14285714  0.14285714  0.14285714       0.023
   0.28571429  0.14285714  0.14285714       0.070
   0.42857143  0.14285714  0.14285714       0.070
   0.28571429  0.28571429  0.14285714       0.070
   0.42857143  0.28571429  0.14285714       0.140
   0.42857143  0.42857143  0.14285714       0.070
   0.28571429  0.28571429  0.28571429       0.023
   0.42857143  0.28571429  0.28571429       0.070
   0.42857143  0.42857143  0.28571429       0.070
   0.42857143  0.42857143  0.42857143       0.023

 position of ions in fractional coordinates (direct lattice) 
   0.25000000  0.25000000  0.25000000
   0.75000000  0.25000000  0.25000000
   0.25000000  0.75000000  0.25000000
   0.75000000  0.75000000  0.25000000
   0.25000000  0.25000000  0.75000000
   0.75000000  0.25000000  0.75000000
   0.25000000  0.75000000  0.75000000
   0.75000000  0.75000000  0.75000000
   0.50000000  0.00000000  0.00000000
   0.50000000  0.50000000  0.00000000
   0.00000000  0.50000000  0.00000000
   0.00000000  0.00000000  0.50000000
   0.50000000  0.00000000  0.50000000
   0.00000000  0.50000000  0.50000000
   0.00000000  0.00000000  0.00000000
   0.50000000  0.50000000  0.50000000

 position of ions in cartesian coordinates  (Angst):
   1.48737662  1.48737662  1.48737662
   4.46212985  1.48737662  1.48737662
   1.48737662  4.46212985  1.48737662
   4.46212985  4.46212985  1.48737662
   1.48737662  1.48737662  4.46212985
   4.46212985  1.48737662  4.46212985
   1.48737662  4.46212985  4.46212985
   4.46212985  4.46212985  4.46212985
   2.97475324  0.00000000  0.00000000
   2.97475324  2.97475324  0.00000000
   0.00000000  2.97475324  0.00000000
   0.00000000  0.00000000  2.97475324
   2.97475324  0.00000000  2.97475324
   0.00000000  2.97475324  2.97475324
   0.00000000  0.00000000  0.00000000
   2.97475324  2.97475324  2.97475324



--------------------------------------------------------------------------------------------------------


 k-point  1 :   0.0000 0.0000 0.0000  plane waves:    6187
 k-point  2 :   0.1429 0.0000 0.0000  plane waves:    6163
 k-point  3 :   0.2857 0.0000 0.0000  plane waves:    6159
 k-point  4 :   0.4286 0.0000 0.0000  plane waves:    6178
 k-point  5 :   0.1429 0.1429 0.0000  plane waves:    6180
 k-point  6 :   0.2857 0.1429 0.0000  plane waves:    6172
 k-point  7 :   0.4286 0.1429 0.0000  plane waves:    6178
 k-point  8 :   0.2857 0.2857 0.0000  plane waves:    6166
 k-point  9 :   0.4286 0.2857 0.0000  plane waves:    6175
 k-point 10 :   0.4286 0.4286 0.0000  plane waves:    6166
 k-point 11 :   0.1429 0.1429 0.1429  plane waves:    6169
 k-point 12 :   0.2857 0.1429 0.1429  plane waves:    6182
 k-point 13 :   0.4286 0.1429 0.1429  plane waves:    6162
 k-point 14 :   0.2857 0.2857 0.1429  plane waves:    6167
 k-point 15 :   0.4286 0.2857 0.1429  plane waves:    6169
 k-point 16 :   0.4286 0.4286 0.1429  plane waves:    6164
 k-point 17 :   0.2857 0.2857 0.2857  plane waves:    6166
 k-point 18 :   0.4286 0.2857 0.2857  plane waves:    6174
 k-point 19 :   0.4286 0.4286 0.2857  plane waves:    6144
 k-point 20 :   0.4286 0.4286 0.4286  plane waves:    6136

 maximum and minimum number of plane-waves per node :      6187     6136

 maximum number of plane-waves:      6187
 maximum index in each direction: 
   IXMAX=   11   IYMAX=   11   IZMAX=   11
   IXMIN=  -11   IYMIN=  -11   IZMIN=  -11


 serial   3D FFT for wavefunctions
 parallel 3D FFT for charge:
    minimum data exchange during FFTs selected (reduces bandwidth)


 total amount of memory used by VASP MPI-rank0    74204. kBytes
=======================================================================

   base      :      30000. kBytes
   nonlr-proj:       6835. kBytes
   fftplans  :       1269. kBytes
   grid      :       6573. kBytes
   one-center:        497. kBytes
   wavefun   :      29030. kBytes

     INWAV:  cpu time    0.0000: real time    0.0000
 Broyden mixing: mesh for mixing (old mesh)
   NGX = 23   NGY = 23   NGZ = 23
  (NGX  = 72   NGY  = 72   NGZ  = 72)
  gives a total of  12167 points

 initial charge density was supplied:
 charge density of overlapping atoms calculated
 number of electron     128.0000000 magnetization       0.8000000
 keeping initial charge density in first step


--------------------------------------------------------------------------------------------------------


 Maximum index for non-local projection operator         3887
 Maximum index for augmentation-charges         2127 (set IRDMAX)


--------------------------------------------------------------------------------------------------------


 First call to EWALD:  gamma=   0.298
 Maximum number of real-space cells 3x 3x 3
 Maximum number of reciprocal cells 3x 3x 3

    FEWALD:  cpu time    0.0023: real time    0.0024


--------------------------------------- Iteration      1(   1)  ---------------------------------------


    POTLOK:  cpu time    0.1057: real time    0.1118
    SETDIJ:  cpu time    0.0383: real time    0.0383
     EDDAV:  cpu time   11.7790: real time   11.7980
       DOS:  cpu time    0.0020: real time    0.0020
    --------------------------------------------
      LOOP:  cpu time   11.9250: real time   11.9501

 eigenvalue-minimisations  :  6720
 total energy-change (2. order) : 0.1067280E+04  (-0.5419980E+04)
 number of electron     128.0000000 magnetization       0.8000000
 augmentation part      128.0000000 magnetization       0.8000000

 Free energy of the ion-electron system (eV)
  ---------------------------------------------------
  alpha Z        PSCENC =       534.32381696
  Ewald energy   TEWEN  =     -9420.82663216
  -Hartree energ DENC   =     -3016.73028118
  -exchange      EXHF   =         0.00000000
  -V(xc)+E(xc)   XCENC  =        77.96317412
  PAW double counting   =     10320.96726947   -10647.99417394
  entropy T*S    EENTRO =        -0.00117327
  eigenvalues    EBANDS =      1990.11640926
  atomic energy  EATOM  =     11229.46195210
  Solvation  Ediel_sol  =         0.00000000
  ---------------------------------------------------
  free energy    TOTEN  =      1067.28036136 eV

  energy without entropy =     1067.28153463  energy(sigma->0) =     1067.28094800


--------------------------------------------------------------------------------------------------------




--------------------------------------- Iteration      1(   2)  ---------------------------------------


     EDDAV:  cpu time   11.6870: real time   11.7054
       DOS:  cpu time    0.0021: real time    0.0022
    --------------------------------------------
      LOOP:  cpu time   11.6891: real time   11.7075

 eigenvalue-minimisations  :  6720
 total energy-change (2. order) :-0.1065876E+04  (-0.1033392E+04)
 number of electron     128.0000000 magnetization       0.8000000
 augmentation part      128.0000000 magnetization       0.8000000

 Free energy of the ion-electron system (eV)
  ---------------------------------------------------
  alpha Z        PSCENC =       534.32381696
  Ewald energy   TEWEN  =     -9420.82663216
  -Hartree energ DENC   =     -3016.73028118
  -exchange      EXHF   =         0.00000000
  -V(xc)+E(xc)   XCENC  =        77.96317412
  PAW double counting   =     10320.96726947   -10647.99417394
  entropy T*S    EENTRO =        -0.00262447
  eigenvalues    EBANDS =       924.24158720
  atomic energy  EATOM  =     11229.46195210
  Solvation  Ediel_sol  =         0.00000000
  ---------------------------------------------------
  free energy    TOTEN  =         1.40408809 eV

  energy without entropy =        1.40671257  energy(sigma->0) =        1.40540033


--------------------------------------------------------------------------------------------------------




--------------------------------------- Iteration      1(   3)  ---------------------------------------


     EDDAV:  cpu time   13.6857: real time   13.7039
       DOS:  cpu time    0.0021: real time    0.0022
    --------------------------------------------
      LOOP:  cpu time   13.6878: real time   13.7061

 eigenvalue-minimisations  :  7548
 total energy-change (2. order) :-0.1112774E+03  (-0.1002762E+03)
 number of electron     128.0000000 magnetization       0.8000000
 augmentation part      128.0000000 magnetization       0.8000000

 Free energy of the ion-electron system (eV)
  ---------------------------------------------------
  alpha Z        PSCENC =       534.32381696
  Ewald energy   TEWEN  =     -9420.82663216
  -Hartree energ DENC   =     -3016.73028118
  -exchange      EXHF   =         0.00000000
  -V(xc)+E(xc)   XCENC  =        77.96317412
  PAW double counting   =     10320.96726947   -10647.99417394
  entropy T*S    EENTRO =        -0.00476114
  eigenvalues    EBANDS =       812.96635836
  atomic energy  EATOM  =     11229.46195210
  Solvation  Ediel_sol  =         0.00000000
  ---------------------------------------------------
  free energy    TOTEN  =      -109.87327741 eV

  energy without entropy =     -109.86851627  energy(sigma->0) =     -109.87089684


--------------------------------------------------------------------------------------------------------




--------------------------------------- Iteration      1(   4)  ---------------------------------------


     EDDAV:  cpu time   15.9711: real time   15.9947
       DOS:  cpu time    0.0021: real time    0.0021
    --------------------------------------------
      LOOP:  cpu time   15.9732: real time   15.9968

 eigenvalue-minimisations  :  9828
 total energy-change (2. order) :-0.6905390E+01  (-0.6526165E+01)
 number of electron     128.0000000 magnetization       0.8000000
 augmentation part      128.0000000 magnetization       0.8000000

 Free energy of the ion-electron system (eV)
  ---------------------------------------------------
  alpha Z        PSCENC =       534.32381696
  Ewald energy   TEWEN  =     -9420.82663216
  -Hartree energ DENC   =     -3016.73028118
  -exchange      EXHF   =         0.00000000
  -V(xc)+E(xc)   XCENC  =        77.96317412
  PAW double counting   =     10320.96726947   -10647.99417394
  entropy T*S    EENTRO =        -0.00397857
  eigenvalues    EBANDS =       806.06018556
  atomic energy  EATOM  =     11229.46195210
  Solvation  Ediel_sol  =         0.00000000
  ---------------------------------------------------
  free energy    TOTEN  =      -116.77866765 eV

  energy without entropy =     -116.77468908  energy(sigma->0) =     -116.77667836


--------------------------------------------------------------------------------------------------------




--------------------------------------- Iteration      1(   5)  ---------------------------------------


     EDDAV:  cpu time   16.0528: real time   16.0849
       DOS:  cpu time    0.0021: real time    0.0021
    CHARGE:  cpu time    0.3792: real time    0.3795
    MIXING:  cpu time    0.0016: real time    0.0016
    --------------------------------------------
      LOOP:  cpu time   16.4356: real time   16.4681

 eigenvalue-minimisations  :  9864
 total energy-change (2. order) :-0.2420212E+00  (-0.2410012E+00)
 number of electron     127.9999540 magnetization       0.5047784
 augmentation part       60.5658319 magnetization       0.3983865

 Broyden mixing:
  rms(total) = 0.33975E+01    rms(broyden)= 0.33975E+01
  rms(prec ) = 0.52846E+01
  weight for this iteration     100.00

 Free energy of the ion-electron system (eV)
  ---------------------------------------------------
  alpha Z        PSCENC =       534.32381696
  Ewald energy   TEWEN  =     -9420.82663216
  -Hartree energ DENC   =     -3016.73028118
  -exchange      EXHF   =         0.00000000
  -V(xc)+E(xc)   XCENC  =        77.96317412
  PAW double counting   =     10320.96726947   -10647.99417394
  entropy T*S    EENTRO =        -0.00388094
  eigenvalues    EBANDS =       805.81806671
  atomic energy  EATOM  =     11229.46195210
  Solvation  Ediel_sol  =         0.00000000
  ---------------------------------------------------
  free energy    TOTEN  =      -117.02068887 eV

  energy without entropy =     -117.01680792  energy(sigma->0) =     -117.01874839


--------------------------------------------------------------------------------------------------------




--------------------------------------- Iteration      1(   6)  ---------------------------------------


    POTLOK:  cpu time    0.1036: real time    0.1043
    SETDIJ:  cpu time    0.0402: real time    0.0402
    EDDIAG:  cpu time    1.6763: real time    1.6781
  RMM-DIIS:  cpu time    5.3496: real time    5.3632
    ORTHCH:  cpu time    0.3169: real time    0.3173
       DOS:  cpu time    0.0021: real time    0.0022
    CHARGE:  cpu time    0.3835: real time    0.3840
    MIXING:  cpu time    0.0016: real time    0.0016
    --------------------------------------------
      LOOP:  cpu time    7.8739: real time    7.8909

 eigenvalue-minimisations  :  6720
 total energy-change (2. order) : 0.9238501E+01  (-0.1603048E+02)
 number of electron     127.9999573 magnetization       0.5858448
 augmentation part       69.8425096 magnetization       0.3592930

 Broyden mixing:
  rms(total) = 0.41985E+01    rms(broyden)= 0.41984E+01
  rms(prec ) = 0.50902E+01
  weight for this iteration     100.00

 eigenvalues of (default mixing * dielectric matrix)
  average eigenvalue GAMMA=   0.2280
  0.2280

 Free energy of the ion-electron system (eV)
  ---------------------------------------------------
  alpha Z        PSCENC =       534.32381696
  Ewald energy   TEWEN  =     -9420.82663216
  -Hartree energ DENC   =     -2777.97804524
  -exchange      EXHF   =         0.00000000
  -V(xc)+E(xc)   XCENC  =        66.27825325
  PAW double counting   =     11123.87665929   -11415.88289099
  entropy T*S    EENTRO =        -0.00533050
  eigenvalues    EBANDS =       552.97002962
  atomic energy  EATOM  =     11229.46195210
  Solvation  Ediel_sol  =         0.00000000
  ---------------------------------------------------
  free energy    TOTEN  =      -107.78218767 eV

  energy without entropy =     -107.77685716  energy(sigma->0) =     -107.77952242


--------------------------------------------------------------------------------------------------------




--------------------------------------- Iteration      1(   7)  ---------------------------------------


    POTLOK:  cpu time    0.0975: real time    0.0976
    SETDIJ:  cpu time    0.0378: real time    0.0378
    EDDIAG:  cpu time    1.6496: real time    1.6518
  RMM-DIIS:  cpu time    5.3065: real time    5.3144
    ORTHCH:  cpu time    0.3172: real time    0.3176
       DOS:  cpu time    0.0021: real time    0.0021
    CHARGE:  cpu time    0.3764: real time    0.3767
    MIXING:  cpu time    0.0016: real time    0.0017
    --------------------------------------------
      LOOP:  cpu time    7.7887: real time    7.7997

 eigenvalue-minimisations  :  6789
 total energy-change (2. order) : 0.7390887E+00  (-0.1976340E+01)
 number of electron     127.9999464 magnetization       0.4517251
 augmentation part       70.4309788 magnetization       0.5201246

 Broyden mixing:
  rms(total) = 0.26133E+01    rms(broyden)= 0.26132E+01
  rms(prec ) = 0.40172E+01
  weight for this iteration     100.00

 eigenvalues of (default mixing * dielectric matrix)
  average eigenvalue GAMMA=   0.4953
  0.4953  0.4953

 Free energy of the ion-electron system (eV)
  ---------------------------------------------------
  alpha Z        PSCENC =       534.32381696
  Ewald energy   TEWEN  =     -9420.82663216
  -Hartree energ DENC   =     -2778.03099953
  -exchange      EXHF   =         0.00000000
  -V(xc)+E(xc)   XCENC  =        68.83333083
  PAW double counting   =     11485.39617479   -11788.47818680
  entropy T*S    EENTRO =        -0.00224794
  eigenvalues    EBANDS =       562.27969279
  atomic energy  EATOM  =     11229.46195210
  Solvation  Ediel_sol  =         0.00000000
  ---------------------------------------------------
  free energy    TOTEN  =      -107.04309896 eV

  energy without entropy =     -107.04085102  energy(sigma->0) =     -107.04197499


--------------------------------------------------------------------------------------------------------




--------------------------------------- Iteration      1(   8)  ---------------------------------------


    POTLOK:  cpu time    0.0977: real time    0.0978
    SETDIJ:  cpu time    0.0378: real time    0.0378
    EDDIAG:  cpu time    1.6544: real time    1.6585
  RMM-DIIS:  cpu time    5.3237: real time    5.3309
    ORTHCH:  cpu time    0.3187: real time    0.3192
       DOS:  cpu time    0.0019: real time    0.0019
    CHARGE:  cpu time    0.3821: real time    0.3825
    MIXING:  cpu time    0.0017: real time    0.0017
    --------------------------------------------
      LOOP:  cpu time    7.8180: real time    7.8304

 eigenvalue-minimisations  :  6788
 total energy-change (2. order) : 0.2105732E+01  (-0.1934256E+01)
 number of electron     127.9999604 magnetization       0.3371517
 augmentation part       66.5171678 magnetization       0.1832969

 Broyden mixing:
  rms(total) = 0.19229E+01    rms(broyden)= 0.19227E+01
  rms(prec ) = 0.33644E+01
  weight for this iteration     100.00

 eigenvalues of (default mixing * dielectric matrix)
  average eigenvalue GAMMA=   0.5792
  0.9355  0.5540  0.2482

 Free energy of the ion-electron system (eV)
  ---------------------------------------------------
  alpha Z        PSCENC =       534.32381696
  Ewald energy   TEWEN  =     -9420.82663216
  -Hartree energ DENC   =     -2842.19683770
  -exchange      EXHF   =         0.00000000
  -V(xc)+E(xc)   XCENC  =        74.43941121
  PAW double counting   =     11885.94803467   -12215.44451879
  entropy T*S    EENTRO =        -0.00375494
  eigenvalues    EBANDS =       649.36116176
  atomic energy  EATOM  =     11229.46195210
  Solvation  Ediel_sol  =         0.00000000
  ---------------------------------------------------
  free energy    TOTEN  =      -104.93736689 eV

  energy without entropy =     -104.93361195  energy(sigma->0) =     -104.93548942


--------------------------------------------------------------------------------------------------------




--------------------------------------- Iteration      1(   9)  ---------------------------------------


    POTLOK:  cpu time    0.0979: real time    0.0981
    SETDIJ:  cpu time    0.0375: real time    0.0376
    EDDIAG:  cpu time    1.6617: real time    1.6639
  RMM-DIIS:  cpu time    5.2930: real time    5.3028
    ORTHCH:  cpu time    0.3186: real time    0.3191
       DOS:  cpu time    0.0020: real time    0.0021
    CHARGE:  cpu time    0.3777: real time    0.3782
    MIXING:  cpu time    0.0018: real time    0.0018
    --------------------------------------------
      LOOP:  cpu time    7.7902: real time    7.8034

 eigenvalue-minimisations  :  6720
 total energy-change (2. order) : 0.1781297E+01  (-0.3231461E+00)
 number of electron     127.9999519 magnetization       0.1621749
 augmentation part       68.1257599 magnetization       0.0683273

 Broyden mixing:
  rms(total) = 0.63632E+00    rms(broyden)= 0.63611E+00
  rms(prec ) = 0.10371E+01
  weight for this iteration     100.00

 eigenvalues of (default mixing * dielectric matrix)
  average eigenvalue GAMMA=   0.8057
  1.7655  0.6666  0.5927  0.1982

 Free energy of the ion-electron system (eV)
  ---------------------------------------------------
  alpha Z        PSCENC =       534.32381696
  Ewald energy   TEWEN  =     -9420.82663216
  -Hartree energ DENC   =     -2818.77397253
  -exchange      EXHF   =         0.00000000
  -V(xc)+E(xc)   XCENC  =        73.75596293
  PAW double counting   =     12200.66636648   -12532.16398199
  entropy T*S    EENTRO =        -0.00279939
  eigenvalues    EBANDS =       630.40321781
  atomic energy  EATOM  =     11229.46195210
  Solvation  Ediel_sol  =         0.00000000
  ---------------------------------------------------
  free energy    TOTEN  =      -103.15606978 eV

  energy without entropy =     -103.15327039  energy(sigma->0) =     -103.15467009


--------------------------------------------------------------------------------------------------------




--------------------------------------- Iteration      1(  10)  ---------------------------------------


    POTLOK:  cpu time    0.0980: real time    0.0982
    SETDIJ:  cpu time    0.0375: real time    0.0376
    EDDIAG:  cpu time    1.6556: real time    1.6584
  RMM-DIIS:  cpu time    5.4328: real time    5.4457
    ORTHCH:  cpu time    0.3173: real time    0.3177
       DOS:  cpu time    0.0021: real time    0.0021
    CHARGE:  cpu time    0.3758: real time    0.3763
    MIXING:  cpu time    0.0020: real time    0.0020
    --------------------------------------------
      LOOP:  cpu time    7.9212: real time    7.9381

 eigenvalue-minimisations  :  6820
 total energy-change (2. order) : 0.1636078E+00  (-0.5421543E-01)
 number of electron     127.9999539 magnetization       0.0900232
 augmentation part       67.6387306 magnetization       0.2396461

 Broyden mixing:
  rms(total) = 0.33588E+00    rms(broyden)= 0.33585E+00
  rms(prec ) = 0.51824E+00
  weight for this iteration     100.00

 eigenvalues of (default mixing * dielectric matrix)
  average eigenvalue GAMMA=   0.7264
  1.8608  0.6158  0.6158  0.1983  0.3412

 Free energy of the ion-electron system (eV)
  ---------------------------------------------------
  alpha Z        PSCENC =       534.32381696
  Ewald energy   TEWEN  =     -9420.82663216
  -Hartree energ DENC   =     -2819.05788190
  -exchange      EXHF   =         0.00000000
  -V(xc)+E(xc)   XCENC  =        76.09662194
  PAW double counting   =     12745.98580854   -13088.13029416
  entropy T*S    EENTRO =        -0.00155127
  eigenvalues    EBANDS =       639.15569799
  atomic energy  EATOM  =     11229.46195210
  Solvation  Ediel_sol  =         0.00000000
  ---------------------------------------------------
  free energy    TOTEN  =      -102.99246196 eV

  energy without entropy =     -102.99091068  energy(sigma->0) =     -102.99168632


--------------------------------------------------------------------------------------------------------




--------------------------------------- Iteration      1(  11)  ---------------------------------------


    POTLOK:  cpu time    0.0977: real time    0.0979
    SETDIJ:  cpu time    0.0378: real time    0.0379
    EDDIAG:  cpu time    1.6664: real time    1.6692
  RMM-DIIS:  cpu time    5.3738: real time    5.3833
    ORTHCH:  cpu time    0.3181: real time    0.3185
       DOS:  cpu time    0.0021: real time    0.0021
    CHARGE:  cpu time    0.3773: real time    0.3779
    MIXING:  cpu time    0.0021: real time    0.0021
    --------------------------------------------
      LOOP:  cpu time    7.8753: real time    7.8888

 eigenvalue-minimisations  :  6823
 total energy-change (2. order) : 0.6183106E-01  (-0.9792914E-02)
 number of electron     127.9999538 magnetization       0.0263884
 augmentation part       67.6754757 magnetization       0.0082505

 Broyden mixing:
  rms(total) = 0.15973E+00    rms(broyden)= 0.15973E+00
  rms(prec ) = 0.22486E+00
  weight for this iteration     100.00

 eigenvalues of (default mixing * dielectric matrix)
  average eigenvalue GAMMA=   0.7629
  2.0713  0.7432  0.7432  0.5277  0.1987  0.2933

 Free energy of the ion-electron system (eV)
  ---------------------------------------------------
  alpha Z        PSCENC =       534.32381696
  Ewald energy   TEWEN  =     -9420.82663216
  -Hartree energ DENC   =     -2817.05593401
  -exchange      EXHF   =         0.00000000
  -V(xc)+E(xc)   XCENC  =        76.07472941
  PAW double counting   =     12825.25220837   -13168.20598442
  entropy T*S    EENTRO =        -0.00180039
  eigenvalues    EBANDS =       638.04701324
  atomic energy  EATOM  =     11229.46195210
  Solvation  Ediel_sol  =         0.00000000
  ---------------------------------------------------
  free energy    TOTEN  =      -102.93063090 eV

  energy without entropy =     -102.92883051  energy(sigma->0) =     -102.92973070


--------------------------------------------------------------------------------------------------------




--------------------------------------- Iteration      1(  12)  ---------------------------------------


    POTLOK:  cpu time    0.0980: real time    0.0984
    SETDIJ:  cpu time    0.0375: real time    0.0375
    EDDIAG:  cpu time    1.6611: real time    1.6640
  RMM-DIIS:  cpu time    5.9120: real time    5.9218
    ORTHCH:  cpu time    0.3194: real time    0.3200
       DOS:  cpu time    0.0021: real time    0.0022
    CHARGE:  cpu time    0.3790: real time    0.3796
    MIXING:  cpu time    0.0022: real time    0.0022
    --------------------------------------------
      LOOP:  cpu time    8.4113: real time    8.4256

 eigenvalue-minimisations  :  7426
 total energy-change (2. order) : 0.1277429E-01  (-0.3740780E-02)
 number of electron     127.9999540 magnetization       0.0035583
 augmentation part       67.7247065 magnetization      -0.0117216

 Broyden mixing:
  rms(total) = 0.94164E-01    rms(broyden)= 0.94161E-01
  rms(prec ) = 0.10801E+00
  weight for this iteration     100.00

 eigenvalues of (default mixing * dielectric matrix)
  average eigenvalue GAMMA=   0.8479
  2.2777  0.8667  0.8667  0.8563  0.5643  0.1982  0.3053

 Free energy of the ion-electron system (eV)
  ---------------------------------------------------
  alpha Z        PSCENC =       534.32381696
  Ewald energy   TEWEN  =     -9420.82663216
  -Hartree energ DENC   =     -2813.97793006
  -exchange      EXHF   =         0.00000000
  -V(xc)+E(xc)   XCENC  =        75.99619573
  PAW double counting   =     12936.29508837   -13280.20399885
  entropy T*S    EENTRO =        -0.00156391
  eigenvalues    EBANDS =       636.01521522
  atomic energy  EATOM  =     11229.46195210
  Solvation  Ediel_sol  =         0.00000000
  ---------------------------------------------------
  free energy    TOTEN  =      -102.91785660 eV

  energy without entropy =     -102.91629269  energy(sigma->0) =     -102.91707465


--------------------------------------------------------------------------------------------------------




--------------------------------------- Iteration      1(  13)  ---------------------------------------


    POTLOK:  cpu time    0.0982: real time    0.0984
    SETDIJ:  cpu time    0.0375: real time    0.0376
    EDDIAG:  cpu time    1.6636: real time    1.6665
  RMM-DIIS:  cpu time    5.5813: real time    5.5913
    ORTHCH:  cpu time    0.3175: real time    0.3180
       DOS:  cpu time    0.0020: real time    0.0020
    CHARGE:  cpu time    0.3783: real time    0.3786
    MIXING:  cpu time    0.0023: real time    0.0023
    --------------------------------------------
      LOOP:  cpu time    8.0808: real time    8.0947

 eigenvalue-minimisations  :  6943
 total energy-change (2. order) : 0.1817947E-02  (-0.1447832E-02)
 number of electron     127.9999540 magnetization      -0.0024704
 augmentation part       67.7826671 magnetization       0.0119420

 Broyden mixing:
  rms(total) = 0.47992E-01    rms(broyden)= 0.47991E-01
  rms(prec ) = 0.60332E-01
  weight for this iteration     100.00

 eigenvalues of (default mixing * dielectric matrix)
  average eigenvalue GAMMA=   0.9433
  2.3221  1.8457  0.8502  0.8502  0.5815  0.5815  0.1982  0.3173

 Free energy of the ion-electron system (eV)
  ---------------------------------------------------
  alpha Z        PSCENC =       534.32381696
  Ewald energy   TEWEN  =     -9420.82663216
  -Hartree energ DENC   =     -2812.09641631
  -exchange      EXHF   =         0.00000000
  -V(xc)+E(xc)   XCENC  =        75.93732059
  PAW double counting   =     12988.82522677   -13332.92786148
  entropy T*S    EENTRO =        -0.00146949
  eigenvalues    EBANDS =       634.38802437
  atomic energy  EATOM  =     11229.46195210
  Solvation  Ediel_sol  =         0.00000000
  ---------------------------------------------------
  free energy    TOTEN  =      -102.91603866 eV

  energy without entropy =     -102.91456916  energy(sigma->0) =     -102.91530391


--------------------------------------------------------------------------------------------------------




--------------------------------------- Iteration      1(  14)  ---------------------------------------


    POTLOK:  cpu time    0.1032: real time    0.1039
    SETDIJ:  cpu time    0.0400: real time    0.0400
    EDDIAG:  cpu time    1.6906: real time    1.6941
  RMM-DIIS:  cpu time    6.2048: real time    6.2150
    ORTHCH:  cpu time    0.3195: real time    0.3199
       DOS:  cpu time    0.0021: real time    0.0021
    CHARGE:  cpu time    0.3801: real time    0.3806
    MIXING:  cpu time    0.0024: real time    0.0024
    --------------------------------------------
      LOOP:  cpu time    8.7427: real time    8.7581

 eigenvalue-minimisations  :  7735
 total energy-change (2. order) : 0.5000857E-03  (-0.3052868E-03)
 number of electron     127.9999540 magnetization      -0.0009652
 augmentation part       67.7911425 magnetization      -0.0008203

 Broyden mixing:
  rms(total) = 0.12126E-01    rms(broyden)= 0.12125E-01
  rms(prec ) = 0.13767E-01
  weight for this iteration     100.00

 eigenvalues of (default mixing * dielectric matrix)
  average eigenvalue GAMMA=   0.9919
  2.3176  2.3176  0.9143  0.9143  0.7900  0.6033  0.5526  0.1982  0.3189

 Free energy of the ion-electron system (eV)
  ---------------------------------------------------
  alpha Z        PSCENC =       534.32381696
  Ewald energy   TEWEN  =     -9420.82663216
  -Hartree energ DENC   =     -2812.14071287
  -exchange      EXHF   =         0.00000000
  -V(xc)+E(xc)   XCENC  =        75.87791554
  PAW double counting   =     12993.00819556   -13336.97510757
  entropy T*S    EENTRO =        -0.00147922
  eigenvalues    EBANDS =       634.35651310
  atomic energy  EATOM  =     11229.46195210
  Solvation  Ediel_sol  =         0.00000000
  ---------------------------------------------------
  free energy    TOTEN  =      -102.91553857 eV

  energy without entropy =     -102.91405935  energy(sigma->0) =     -102.91479896


--------------------------------------------------------------------------------------------------------




--------------------------------------- Iteration      1(  15)  ---------------------------------------


    POTLOK:  cpu time    0.0981: real time    0.0982
    SETDIJ:  cpu time    0.0373: real time    0.0374
    EDDIAG:  cpu time    1.6688: real time    1.6711
  RMM-DIIS:  cpu time    5.8438: real time    5.8529
    ORTHCH:  cpu time    0.3173: real time    0.3177
       DOS:  cpu time    0.0021: real time    0.0021
    CHARGE:  cpu time    0.3801: real time    0.3804
    MIXING:  cpu time    0.0026: real time    0.0026
    --------------------------------------------
      LOOP:  cpu time    8.3502: real time    8.3624

 eigenvalue-minimisations  :  7275
 total energy-change (2. order) :-0.1076127E-05  (-0.4354017E-04)
 number of electron     127.9999540 magnetization       0.0011128
 augmentation part       67.7812076 magnetization      -0.0006522

 Broyden mixing:
  rms(total) = 0.58784E-02    rms(broyden)= 0.58782E-02
  rms(prec ) = 0.71390E-02
  weight for this iteration     100.00

 eigenvalues of (default mixing * dielectric matrix)
  average eigenvalue GAMMA=   1.0131
  2.4221  2.4221  1.1602  0.1982  0.8714  0.8714  0.3186  0.5603  0.6342  0.6724

 Free energy of the ion-electron system (eV)
  ---------------------------------------------------
  alpha Z        PSCENC =       534.32381696
  Ewald energy   TEWEN  =     -9420.82663216
  -Hartree energ DENC   =     -2812.45993031
  -exchange      EXHF   =         0.00000000
  -V(xc)+E(xc)   XCENC  =        75.89904756
  PAW double counting   =     12991.96732078   -13335.93599209
  entropy T*S    EENTRO =        -0.00147742
  eigenvalues    EBANDS =       634.65635493
  atomic energy  EATOM  =     11229.46195210
  Solvation  Ediel_sol  =         0.00000000
  ---------------------------------------------------
  free energy    TOTEN  =      -102.91553965 eV

  energy without entropy =     -102.91406223  energy(sigma->0) =     -102.91480094


--------------------------------------------------------------------------------------------------------




--------------------------------------- Iteration      1(  16)  ---------------------------------------


    POTLOK:  cpu time    0.0979: real time    0.0980
    SETDIJ:  cpu time    0.0374: real time    0.0374
    EDDIAG:  cpu time    1.6701: real time    1.6724
  RMM-DIIS:  cpu time    5.0192: real time    5.0263
    ORTHCH:  cpu time    0.3178: real time    0.3183
       DOS:  cpu time    0.0021: real time    0.0021
    --------------------------------------------
      LOOP:  cpu time    7.1445: real time    7.1546

 eigenvalue-minimisations  :  6279
 total energy-change (2. order) : 0.5048405E-06  (-0.9361033E-05)
 number of electron     127.9999540 magnetization       0.0011128
 augmentation part       67.7812076 magnetization      -0.0006522

 Free energy of the ion-electron system (eV)
  ---------------------------------------------------
  alpha Z        PSCENC =       534.32381696
  Ewald energy   TEWEN  =     -9420.82663216
  -Hartree energ DENC   =     -2812.53816023
  -exchange      EXHF   =         0.00000000
  -V(xc)+E(xc)   XCENC  =        75.91250111
  PAW double counting   =     12991.47345116   -13335.43615810
  entropy T*S    EENTRO =        -0.00148087
  eigenvalues    EBANDS =       634.71517090
  atomic energy  EATOM  =     11229.46195210
  Solvation  Ediel_sol  =         0.00000000
  ---------------------------------------------------
  free energy    TOTEN  =      -102.91553914 eV

  energy without entropy =     -102.91405827  energy(sigma->0) =     -102.91479871


--------------------------------------------------------------------------------------------------------




 average (electrostatic) potential at core
  the test charge radii are     0.9791  1.0210  1.4837
  (the norm of the test charge is              1.0000)
       1 -83.8468       2 -83.8468       3 -83.8468       4 -83.8468       5 -83.8468
       6 -83.8468       7 -83.8468       8 -83.8468       9 -42.3715      10 -42.3713
      11 -42.3715      12 -42.3715      13 -42.3713      14 -42.3713      15 -34.5031
      16 -34.5034



 E-fermi :   7.3640     XC(G=0): -12.3193     alpha+bet :-14.2065


 spin component 1

 k-point     1 :       0.0000    0.0000    0.0000
  band No.  band energies     occupation 
      1      -1.9335      1.00000
      2       0.5871      1.00000
      3       2.2863      1.00000
      4       2.2863      1.00000
      5       2.2863      1.00000
      6       2.5658      1.00000
      7       3.2234      1.00000
      8       3.2234      1.00000
      9       3.3360      1.00000
     10       3.3360      1.00000
     11       3.3360      1.00000
     12       3.5465      1.00000
     13       3.5465      1.00000
     14       4.1080      1.00000
     15       4.1080      1.00000
     16       4.4372      1.00000
     17       4.4372      1.00000
     18       4.4372      1.00000
     19       4.4385      1.00000
     20       4.4385      1.00000
     21       4.4385      1.00000
     22       4.5714      1.00000
     23       4.5714      1.00000
     24       4.5714      1.00000
     25       4.9137      1.00000
     26       5.0809      1.00000
     27       5.0809      1.00000
     28       5.0809      1.00000
     29       5.6074      1.00000
     30       5.6074      1.00000
     31       5.6074      1.00000
     32       5.6368      1.00000
     33       5.6368      1.00000
     34       5.6368      1.00000
     35       5.7260      1.00000
     36       5.7260      1.00000
     37       5.7282      1.00000
     38       5.7282      1.00000
     39       5.7282      1.00000
     40       5.9671      1.00000
     41       5.9671      1.00000
     42       5.9671      1.00000
     43       6.0799      1.00000
     44       6.0799      1.00000
     45       6.0799      1.00000
     46       6.1189      1.00000
     47       6.1868      1.00000
     48       6.2328      1.00000
     49       6.2328      1.00000
     50       6.2689      1.00000
     51       6.2689      1.00000
     52       6.2689      1.00000
     53       6.3276      1.00000
     54       6.3276      1.00000
     55       6.3276      1.00000
     56       6.4487      1.00000
     57       6.4487      1.00000
     58       6.5841      1.00000
     59       6.5841      1.00000
     60       6.5841      1.00000
     61       6.6099      1.00000
     62       6.6099      1.00000
     63       7.0576      1.00000
     64       7.0576      1.00000
     65       7.0576      1.00000
     66       7.3069      0.99997
     67       7.3069      0.99997
     68       7.3069      0.99997
     69       7.8530      0.00000
     70       7.8530      0.00000
     71       7.8530      0.00000
     72       8.6272      0.00000
     73       8.6272      0.00000
     74       8.6272      0.00000
     75       8.9050      0.00000
     76       8.9050      0.00000
     77       8.9699      0.00000
     78       8.9699      0.00000
     79       8.9699      0.00000
     80       9.0287      0.00000
     81       9.2174      0.00000
     82       9.4702      0.00000
     83       9.4702      0.00000
     84      11.2481      0.00000

 k-point     2 :       0.1429    0.0000    0.0000
  band No.  band energies     occupation 
      1      -1.8441      1.00000
      2       0.4370      1.00000
      3       2.0907      1.00000
      4       2.3491      1.00000
      5       2.3491      1.00000
      6       2.5757      1.00000
      7       3.2753      1.00000
      8       3.3105      1.00000
      9       3.3105      1.00000
     10       3.3818      1.00000
     11       3.3911      1.00000
     12       3.5663      1.00000
     13       3.6547      1.00000
     14       4.0296      1.00000
     15       4.1295      1.00000
     16       4.3981      1.00000
     17       4.4165      1.00000
     18       4.4165      1.00000
     19       4.4394      1.00000
     20       4.4394      1.00000
     21       4.4562      1.00000
     22       4.5150      1.00000
     23       4.6339      1.00000
     24       4.6339      1.00000
     25       4.7875      1.00000
     26       5.0994      1.00000
     27       5.0994      1.00000
     28       5.1059      1.00000
     29       5.3909      1.00000
     30       5.3909      1.00000
     31       5.5875      1.00000
     32       5.6210      1.00000
     33       5.6315      1.00000
     34       5.6315      1.00000
     35       5.6451      1.00000
     36       5.6894      1.00000
[...]
     79      11.0470      0.00000
     80      11.2787      0.00000
     81      11.2788      0.00000
     82      11.9021      0.00000
     83      11.9076      0.00000
     84      12.3842      0.00000


--------------------------------------------------------------------------------------------------------


 soft charge-density along one line, spin component           1
         0         1         2         3         4         5         6         7         8         9
 total charge-density along one line

 soft charge-density along one line, spin component           2
         0         1         2         3         4         5         6         7         8         9
 total charge-density along one line

 pseudopotential strength for first ion, spin component:           1
 -1.575  -0.006   0.005  -0.006  -0.000  -2.214  -0.006   0.005
 -0.006  -1.575  -0.002  -0.006   0.004  -0.006  -2.214  -0.002
  0.005  -0.002  -1.569  -0.002   0.000   0.005  -0.002  -2.208
 -0.006  -0.006  -0.002  -1.575  -0.004  -0.006  -0.006  -0.002
 -0.000   0.004   0.000  -0.004  -1.569  -0.000   0.004   0.000
 -2.214  -0.006   0.005  -0.006  -0.000  -2.783  -0.005   0.005
 -0.006  -2.214  -0.002  -0.006   0.004  -0.005  -2.783  -0.002
  0.005  -0.002  -2.208  -0.002   0.000   0.005  -0.002  -2.777
 -0.006  -0.006  -0.002  -2.214  -0.004  -0.005  -0.005  -0.002
 -0.000   0.004   0.000  -0.004  -2.208  -0.000   0.004   0.000
 -0.001  -0.001  -0.000  -0.001   0.000  -0.001  -0.001  -0.000
 -0.002  -0.002   0.000  -0.002   0.000  -0.001  -0.001  -0.000
  0.002   0.002  -0.000  -0.004  -0.001   0.002   0.002  -0.000
 -0.004   0.002   0.001   0.002  -0.000  -0.003   0.002   0.001
  0.002  -0.004  -0.000   0.002   0.001   0.002  -0.003  -0.000
  0.003   0.003  -0.001  -0.005  -0.001   0.003   0.003  -0.001
 -0.005   0.003   0.001   0.003  -0.000  -0.005   0.003   0.001
  0.003  -0.005  -0.001   0.003   0.001   0.003  -0.005  -0.001
 pseudopotential strength for first ion, spin component:           2
 -1.575  -0.006   0.005  -0.006  -0.000  -2.214  -0.006   0.005
 -0.006  -1.575  -0.002  -0.006   0.004  -0.006  -2.214  -0.002
  0.005  -0.002  -1.569  -0.002   0.000   0.005  -0.002  -2.208
 -0.006  -0.006  -0.002  -1.575  -0.004  -0.006  -0.006  -0.002
 -0.000   0.004   0.000  -0.004  -1.569  -0.000   0.004   0.000
 -2.214  -0.006   0.005  -0.006  -0.000  -2.783  -0.005   0.005
 -0.006  -2.214  -0.002  -0.006   0.004  -0.005  -2.783  -0.002
  0.005  -0.002  -2.208  -0.002   0.000   0.005  -0.002  -2.777
 -0.006  -0.006  -0.002  -2.214  -0.004  -0.005  -0.005  -0.002
 -0.000   0.004   0.000  -0.004  -2.208  -0.000   0.004   0.000
 -0.001  -0.001  -0.000  -0.001   0.000  -0.001  -0.001  -0.000
 -0.002  -0.002   0.000  -0.002   0.000  -0.001  -0.001  -0.000
 -0.002  -0.002   0.000   0.004   0.001  -0.002  -0.002   0.000
  0.004  -0.002  -0.001  -0.002  -0.000   0.003  -0.002  -0.001
 -0.002   0.004   0.000  -0.002  -0.001  -0.002   0.003   0.000
 -0.003  -0.003   0.001   0.005   0.001  -0.003  -0.003   0.001
  0.005  -0.003  -0.001  -0.003  -0.000   0.005  -0.003  -0.001
 -0.003   0.005   0.001  -0.003  -0.001  -0.003   0.005   0.001
 total augmentation occupancy for first ion, spin component:           1
  2.026   0.105   0.080   0.105   0.000  -0.534  -0.097  -0.061  -0.097  -0.000  -0.106   0.037   0.000  -0.000   0.000  -0.000
  0.105   2.026  -0.040   0.105   0.070  -0.097  -0.534   0.030  -0.097  -0.053  -0.106   0.037   0.000   0.000  -0.000  -0.000
  0.080  -0.040   2.622  -0.040   0.000  -0.061   0.030  -0.955   0.030   0.000   0.000   0.000  -0.000   0.000  -0.000   0.000
  0.105   0.105  -0.040   2.026  -0.070  -0.097  -0.097   0.030  -0.534   0.053  -0.106   0.037  -0.000   0.000   0.000   0.000
 -0.000   0.070  -0.000  -0.070   2.622  -0.000  -0.053   0.000   0.053  -0.955  -0.000   0.000  -0.000   0.000   0.000   0.000
 -0.534  -0.097  -0.061  -0.097   0.000   0.839   0.091   0.035   0.091   0.000   0.065  -0.024  -0.000   0.000  -0.000   0.000
 -0.097  -0.534   0.030  -0.097  -0.053   0.091   0.839  -0.018   0.091   0.031   0.065  -0.024  -0.000  -0.000   0.000   0.000
 -0.061   0.030  -0.955   0.030  -0.000   0.035  -0.018   1.035  -0.018   0.000  -0.000  -0.000   0.000  -0.000   0.000  -0.000
 -0.097  -0.097   0.030  -0.534   0.053   0.091   0.091  -0.018   0.839  -0.031   0.065  -0.024   0.000  -0.000  -0.000  -0.000
 -0.000  -0.053  -0.000   0.053  -0.955   0.000   0.031   0.000  -0.031   1.035   0.000  -0.000   0.000   0.000  -0.000  -0.000
 -0.106  -0.106   0.000  -0.106   0.000   0.065   0.065  -0.000   0.065   0.000   2.120  -0.290  -0.000  -0.000  -0.000   0.000
  0.037   0.037   0.000   0.037   0.000  -0.024  -0.024  -0.000  -0.024   0.000  -0.290   0.050   0.000   0.000   0.000  -0.000
  0.000   0.000  -0.000  -0.000  -0.000  -0.000  -0.000   0.000   0.000   0.000  -0.000   0.000   0.258   0.002   0.002  -0.027
 -0.000   0.000   0.000   0.000  -0.000   0.000  -0.000  -0.000  -0.000   0.000  -0.000   0.000   0.002   0.258   0.002  -0.002
  0.000  -0.000  -0.000   0.000   0.000  -0.000   0.000   0.000  -0.000  -0.000  -0.000   0.000   0.002   0.002   0.258  -0.002
 -0.000  -0.000   0.000   0.000   0.000   0.000   0.000  -0.000  -0.000  -0.000   0.000  -0.000  -0.027  -0.002  -0.002   0.003
  0.000  -0.000  -0.000  -0.000  -0.000  -0.000   0.000   0.000   0.000   0.000   0.000  -0.000  -0.002  -0.027  -0.002   0.001
 -0.000   0.000   0.000  -0.000  -0.000   0.000  -0.000  -0.000   0.000   0.000   0.000  -0.000  -0.002  -0.002  -0.027   0.001
 total augmentation occupancy for first ion, spin component:           2
 -0.000   0.000   0.000   0.000  -0.000   0.000  -0.000  -0.000  -0.000   0.000   0.000  -0.000  -0.037   0.132  -0.037   0.001
  0.000  -0.000  -0.000   0.000   0.000  -0.000   0.000   0.000  -0.000  -0.000   0.000  -0.000  -0.037  -0.037   0.132   0.001
  0.000  -0.000   0.001  -0.000   0.000  -0.000   0.000  -0.000   0.000   0.000   0.000   0.000  -0.005   0.010  -0.005  -0.000
  0.000   0.000  -0.000  -0.000  -0.000  -0.000  -0.000   0.000   0.000   0.000   0.000  -0.000   0.132  -0.037  -0.037  -0.004
  0.000   0.000   0.000  -0.000   0.001  -0.000  -0.000   0.000   0.000  -0.000  -0.000   0.000  -0.009   0.000   0.009  -0.000
  0.000  -0.000  -0.000  -0.000  -0.000  -0.000   0.000   0.000   0.000  -0.000  -0.000  -0.000   0.023  -0.096   0.023  -0.003
 -0.000   0.000   0.000  -0.000  -0.000   0.000  -0.000  -0.000   0.000   0.000  -0.000  -0.000   0.023   0.023  -0.096  -0.003
 -0.000   0.000  -0.000   0.000   0.000   0.000  -0.000   0.000  -0.000  -0.000   0.000   0.000   0.007  -0.014   0.007   0.000
 -0.000  -0.000   0.000   0.000   0.000   0.000   0.000  -0.000  -0.000  -0.000  -0.000  -0.000  -0.096   0.023   0.023   0.008
 -0.000  -0.000   0.000   0.000  -0.000  -0.000   0.000  -0.000  -0.000   0.000  -0.000   0.000   0.013  -0.000  -0.013   0.000
  0.000   0.000   0.000   0.000  -0.000  -0.000  -0.000   0.000  -0.000   0.000   0.000  -0.000  -0.005  -0.005  -0.005  -0.001
 -0.000  -0.000  -0.000  -0.000   0.000  -0.000  -0.000   0.000  -0.000  -0.000  -0.000   0.000  -0.002  -0.002  -0.002   0.000
 -0.037  -0.037  -0.005   0.132  -0.009   0.023   0.023   0.007  -0.096   0.013  -0.005  -0.002   0.000  -0.000  -0.000   0.000
  0.132  -0.037   0.010  -0.037  -0.000  -0.096   0.023  -0.014   0.023   0.000  -0.005  -0.002  -0.000   0.000  -0.000  -0.000
 -0.037   0.132  -0.005  -0.037   0.009   0.023  -0.096   0.007   0.023  -0.013  -0.005  -0.002  -0.000  -0.000   0.000  -0.000
  0.001   0.001  -0.000  -0.004  -0.000  -0.003  -0.003   0.000   0.008   0.000  -0.001   0.000   0.000  -0.000  -0.000  -0.000
 -0.004   0.001   0.000   0.001  -0.000   0.008  -0.003  -0.000  -0.003  -0.000  -0.001   0.000  -0.000   0.000  -0.000   0.000
  0.001  -0.004  -0.000   0.001   0.000  -0.003   0.008   0.000  -0.003  -0.000  -0.001   0.000  -0.000  -0.000   0.000   0.000


------------------------ aborting loop because EDIFF is reached ----------------------------------------





 total charge     

# of ion       s       p       d       tot
------------------------------------------
    1        0.463   0.430   8.390   9.284
    2        0.465   0.423   8.397   9.286
    3        0.465   0.423   8.388   9.276
    4        0.465   0.427   8.376   9.268
    5        0.465   0.427   8.376   9.268
    6        0.465   0.423   8.388   9.276
    7        0.465   0.423   8.397   9.286
    8        0.463   0.430   8.390   9.284
    9        0.325   0.310   4.897   5.532
   10        0.339   0.327   4.944   5.610
   11        0.332   0.323   4.953   5.607
   12        0.339   0.327   4.944   5.610
   13        0.332   0.323   4.952   5.607
   14        0.325   0.310   4.897   5.532
   15        1.266   1.849   0.356   3.471
   16        1.266   1.849   0.356   3.471
--------------------------------------------------
tot          8.240   9.024  97.401 114.666



 magnetization (x)

# of ion       s       p       d       tot
------------------------------------------
    1        0.000   0.000   0.000   0.000
    2        0.000   0.000  -0.000   0.000
    3        0.000   0.000  -0.000   0.000
    4        0.000   0.000  -0.000   0.000
    5        0.000   0.000  -0.000   0.000
    6        0.000   0.000   0.000   0.000
    7        0.000   0.000  -0.000   0.000
    8        0.000   0.000   0.000   0.000
    9       -0.040  -0.024  -3.511  -3.575
   10        0.043   0.036   3.506   3.585
   11       -0.041  -0.033  -3.511  -3.585
   12       -0.043  -0.036  -3.506  -3.585
   13        0.041   0.033   3.511   3.585
   14        0.040   0.024   3.511   3.575
   15        0.015   0.076   0.002   0.093
   16       -0.015  -0.076  -0.002  -0.093
--------------------------------------------------
tot          0.000   0.000   0.000   0.000

    CHARGE:  cpu time    0.3717: real time    0.3722
    FORLOC:  cpu time    0.0073: real time    0.0073
    FORNL :  cpu time    2.5714: real time    2.5751
    STRESS:  cpu time    7.7669: real time    7.7780
    FORCOR:  cpu time    0.1014: real time    0.1015
    FORHAR:  cpu time    0.0167: real time    0.0168
    MIXING:  cpu time    0.0028: real time    0.0028
    OFIELD:  cpu time    0.0000: real time    0.0000

  FORCE on cell =-STRESS in cart. coord.  units (eV):
  Direction    XX          YY          ZZ          XY          YZ          ZX
  --------------------------------------------------------------------------------------
  Alpha Z   534.32382   534.32382   534.32382
  Ewald   -3140.28495 -3140.28495 -3140.28495     0.00000     0.00000     0.00000
  Hartree   937.46850   937.46850   937.46850    -0.00000    -0.00000    -0.00000
  E(xc)    -671.63289  -671.63289  -671.63289     0.00000     0.00000    -0.00000
  Local    -156.88153  -156.88153  -156.88153     0.00000     0.00000     0.00000
  n-local  -147.11911  -148.08678  -144.11217    -0.01894     0.00518     0.08510
  augment  1579.80295  1579.80295  1579.80295     0.00000     0.00000     0.00000
  Kinetic  1054.61683  1061.53200  1075.34864     0.35970     1.78347     0.73867
  Fock        0.00000     0.00000     0.00000     0.00000     0.00000     0.00000
  -------------------------------------------------------------------------------------
  Total       0.18903     0.18903     0.18903    -0.00000     0.00000    -0.00000
  in kB       1.43815     1.43815     1.43815    -0.00000     0.00000    -0.00000
  external pressure =        1.44 kB  Pullay stress =        0.00 kB


 VOLUME and BASIS-vectors are now :
 -----------------------------------------------------------------------------
  energy-cutoff  :      550.00
  volume of cell :      210.59
      direct lattice vectors                 reciprocal lattice vectors
     5.949506473  0.000000000  0.000000000     0.168081168  0.000000000  0.000000000
     0.000000000  5.949506473  0.000000000     0.000000000  0.168081168  0.000000000
     0.000000000  0.000000000  5.949506473     0.000000000  0.000000000  0.168081168

  length of vectors
     5.949506473  5.949506473  5.949506473     0.168081168  0.168081168  0.168081168


 FORCES acting on ions
    electron-ion (+dipol)            ewald-force                    non-local-force                 convergence-correction
 -----------------------------------------------------------------------------------------------
   -.180E-02 -.180E-02 -.180E-02   0.178E-13 -.178E-13 -.107E-13   -.203E-03 -.203E-03 -.203E-03   0.194E-02 0.194E-02 0.194E-02
   0.180E-02 -.180E-02 -.180E-02   0.462E-13 -.391E-13 -.462E-13   0.203E-03 -.203E-03 -.203E-03   -.194E-02 0.194E-02 0.194E-02
   -.180E-02 0.180E-02 -.180E-02   0.178E-13 -.107E-13 -.391E-13   -.203E-03 0.203E-03 -.203E-03   0.194E-02 -.194E-02 0.194E-02
   0.180E-02 0.180E-02 -.180E-02   0.355E-14 0.107E-13 -.462E-13   0.203E-03 0.203E-03 -.203E-03   -.194E-02 -.194E-02 0.194E-02
   -.180E-02 -.180E-02 0.180E-02   0.320E-13 -.178E-13 -.604E-13   -.203E-03 -.203E-03 0.203E-03   0.194E-02 0.194E-02 -.194E-02
   0.180E-02 -.180E-02 0.180E-02   0.604E-13 -.391E-13 -.107E-13   0.203E-03 -.203E-03 0.203E-03   -.194E-02 0.194E-02 -.194E-02
   -.180E-02 0.180E-02 0.180E-02   0.178E-13 -.107E-13 -.462E-13   -.203E-03 0.203E-03 0.203E-03   0.194E-02 -.194E-02 -.194E-02
   0.180E-02 0.180E-02 0.180E-02   0.604E-13 0.107E-13 0.355E-14   0.203E-03 0.203E-03 0.203E-03   -.194E-02 -.194E-02 -.194E-02
   0.188E-12 -.900E-14 -.963E-12   -.150E-13 0.248E-13 0.271E-13   0.000E+00 0.000E+00 0.000E+00   0.367E-13 0.499E-13 0.645E-13
   0.186E-12 0.168E-12 0.194E-12   -.159E-13 0.485E-13 0.574E-13   0.000E+00 0.000E+00 0.000E+00   0.432E-13 -.447E-13 0.517E-13
   -.222E-13 0.197E-12 -.585E-13   -.121E-13 0.433E-13 0.556E-13   0.000E+00 0.000E+00 0.000E+00   -.195E-13 -.685E-13 0.525E-13
   -.214E-13 -.426E-13 0.191E-12   -.182E-13 0.231E-13 0.437E-13   0.000E+00 0.000E+00 0.000E+00   0.189E-13 0.224E-13 -.359E-13
   0.184E-12 -.242E-13 0.867E-12   -.978E-14 0.242E-13 0.436E-13   0.000E+00 0.000E+00 0.000E+00   0.156E-14 0.227E-13 -.655E-13
   -.157E-13 0.198E-12 0.181E-12   -.163E-13 0.456E-13 0.578E-13   0.000E+00 0.000E+00 0.000E+00   0.306E-13 -.288E-13 -.369E-13
   -.302E-13 -.124E-13 -.771E-14   -.700E-13 -.241E-13 -.475E-14   0.000E+00 0.000E+00 0.000E+00   -.543E-14 0.173E-13 0.147E-13
   -.432E-13 -.258E-12 -.643E-12   -.689E-13 -.298E-13 0.366E-14   0.000E+00 0.000E+00 0.000E+00   -.533E-14 -.109E-13 -.164E-13
 -----------------------------------------------------------------------------------------------
   0.621E-11 0.702E-11 0.811E-11   0.296E-13 0.418E-13 0.284E-13   -.542E-19 -.271E-19 0.000E+00   0.145E-12 0.189E-12 -.268E-12


 POSITION                                       TOTAL-FORCE (eV/Angst)
 -----------------------------------------------------------------------------------
      1.48738      1.48738      1.48738        -0.000064     -0.000064     -0.000064
      4.46213      1.48738      1.48738         0.000064     -0.000064     -0.000064
      1.48738      4.46213      1.48738        -0.000064      0.000064     -0.000064
      4.46213      4.46213      1.48738         0.000064      0.000064     -0.000064
      1.48738      1.48738      4.46213        -0.000064     -0.000064      0.000064
      4.46213      1.48738      4.46213         0.000064     -0.000064      0.000064
      1.48738      4.46213      4.46213        -0.000064      0.000064      0.000064
      4.46213      4.46213      4.46213         0.000064      0.000064      0.000064
      2.97475      0.00000      0.00000        -0.000000      0.000000     -0.000000
      2.97475      2.97475      0.00000        -0.000000      0.000000     -0.000000
      0.00000      2.97475      0.00000        -0.000000      0.000000     -0.000000
      0.00000      0.00000      2.97475        -0.000000      0.000000     -0.000000
      2.97475      0.00000      2.97475        -0.000000      0.000000     -0.000000
      0.00000      2.97475      2.97475        -0.000000      0.000000     -0.000000
      0.00000      0.00000      0.00000        -0.000000      0.000000     -0.000000
      2.97475      2.97475      2.97475        -0.000000      0.000000     -0.000000
 -----------------------------------------------------------------------------------
    total drift:                                0.000000      0.000000      0.000000


--------------------------------------------------------------------------------------------------------



  FREE ENERGIE OF THE ION-ELECTRON SYSTEM (eV)
  ---------------------------------------------------
  free  energy   TOTEN  =      -102.91553914 eV

  energy  without entropy=     -102.91405827  energy(sigma->0) =     -102.91479871



--------------------------------------------------------------------------------------------------------


    POTLOK:  cpu time    0.1358: real time    0.1359


--------------------------------------------------------------------------------------------------------




--------------------------------------------------------------------------------------------------------


  
 reached required accuracy - stopping structural energy minimisation
     LOOP+:  cpu time  169.6320: real time  170.0006
    4ORBIT:  cpu time    0.0000: real time    0.0000



 total charge     

# of ion       s       p       d       tot
------------------------------------------
    1        0.463   0.430   8.390   9.284
    2        0.465   0.423   8.397   9.286
    3        0.465   0.423   8.388   9.276
    4        0.465   0.427   8.376   9.268
    5        0.465   0.427   8.376   9.268
    6        0.465   0.423   8.388   9.276
    7        0.465   0.423   8.397   9.286
    8        0.463   0.430   8.390   9.284
    9        0.325   0.310   4.897   5.532
   10        0.339   0.327   4.944   5.610
   11        0.332   0.323   4.953   5.607
   12        0.339   0.327   4.944   5.610
   13        0.332   0.323   4.952   5.607
   14        0.325   0.310   4.897   5.532
   15        1.266   1.849   0.356   3.471
   16        1.266   1.849   0.356   3.471
--------------------------------------------------
tot          8.240   9.024  97.401 114.666



 magnetization (x)

# of ion       s       p       d       tot
------------------------------------------
    1        0.000   0.000   0.000   0.000
    2        0.000   0.000  -0.000   0.000
    3        0.000   0.000  -0.000   0.000
    4        0.000   0.000  -0.000   0.000
    5        0.000   0.000  -0.000   0.000
    6        0.000   0.000   0.000   0.000
    7        0.000   0.000  -0.000   0.000
    8        0.000   0.000   0.000   0.000
    9       -0.040  -0.024  -3.511  -3.575
   10        0.043   0.036   3.506   3.585
   11       -0.041  -0.033  -3.511  -3.585
   12       -0.043  -0.036  -3.506  -3.585
   13        0.041   0.033   3.511   3.585
   14        0.040   0.024   3.511   3.575
   15        0.015   0.076   0.002   0.093
   16       -0.015  -0.076  -0.002  -0.093
--------------------------------------------------
tot          0.000   0.000   0.000   0.000


 total amount of memory used by VASP MPI-rank0    74204. kBytes
=======================================================================

   base      :      30000. kBytes
   nonlr-proj:       6835. kBytes
   fftplans  :       1269. kBytes
   grid      :       6573. kBytes
   one-center:        497. kBytes
   wavefun   :      29030. kBytes

  
  
 General timing and accounting informations for this job:
 ========================================================
  
                  Total CPU time used (sec):      176.323
                            User time (sec):      166.996
                          System time (sec):        9.326
                         Elapsed time (sec):      177.204
  
                   Maximum memory used (kb):      101700.
                   Average memory used (kb):           0.
  
                          Minor page faults:      3431012
                          Major page faults:            8
                 Voluntary context switches:         1843
