 vasp.5.4.4.18Apr17-6-g9f103f2a35 (build May 21 2018 20:56:50) complex           
 executed on             LinuxGNU date 2021.10.15  15:41:33
 running on   12 total cores
 distrk:  each k-point on   12 cores,    1 groups
 distr:  one band on NCORES_PER_BAND=   1 cores,   12 groups


--------------------------------------------------------------------------------------------------------


 INCAR:
 POTCAR:    PAW_PBE Ni 02Aug2007                  
 POTCAR:    PAW_PBE Mn 06Sep2000                  
 POTCAR:    PAW_PBE In 08Apr2002                  

 ----------------------------------------------------------------------------- 
|                                                                             |
|           W    W    AA    RRRRR   N    N  II  N    N   GGGG   !!!           |
|           W    W   A  A   R    R  NN   N  II  NN   N  G    G  !!!           |
|           W    W  A    A  R    R  N N  N  II  N N  N  G       !!!           |
|           W WW W  AAAAAA  RRRRR   N  N N  II  N  N N  G  GGG   !            |
|           WW  WW  A    A  R   R   N   NN  II  N   NN  G    G                |
|           W    W  A    A  R    R  N    N  II  N    N   GGGG   !!!           |
|                                                                             |
|      For optimal performance we recommend to set                            |
|        NCORE= 4 - approx SQRT( number of cores)                             |
|      NCORE specifies how many cores store one orbital (NPAR=cpu/NCORE).     |
|      This setting can  greatly improve the performance of VASP for DFT.     |
|      The default,   NCORE=1            might be grossly inefficient         |
|      on modern multi-core architectures or massively parallel machines.     |
|      Do your own testing !!!!                                               |
|      Unfortunately you need to use the default for GW and RPA calculations. |
|      (for HF NCORE is supported but not extensively tested yet)             |
|                                                                             |
 ----------------------------------------------------------------------------- 

 POTCAR:    PAW_PBE Ni 02Aug2007                  
   VRHFIN =Ni:                                                                  
   LEXCH  = PE                                                                  
   EATOM  =  1077.6739 eV,   79.2068 Ry                                         
                                                                                
   TITEL  = PAW_PBE Ni 02Aug2007                                                
   LULTRA =        F    use ultrasoft PP ?                                      
   IUNSCR =        1    unscreen: 0-lin 1-nonlin 2-no                           
   RPACOR =    2.000    partial core radius                                     
   POMASS =   58.690; ZVAL   =   10.000    mass and valenz                      
   RCORE  =    2.300    outmost cutoff radius                                   
   RWIGS  =    2.430; RWIGS  =    1.286    wigner-seitz radius (au A)           
   ENMAX  =  269.532; ENMIN  =  202.149 eV                                      
   RCLOC  =    1.201    cutoff for local pot                                    
   LCOR   =        T    correct aug charges                                     
   LPAW   =        T    paw PP                                                  
   EAUG   =  544.565                                                            
   DEXC   =    0.000                                                            
   RMAX   =    2.357    core radius for proj-oper                               
   RAUG   =    1.300    factor for augmentation sphere                          
   RDEP   =    2.390    radius for radial grids                                 
   RDEPT  =    1.838    core radius for aug-charge                              
                                                                                
   Atomic configuration                                                         
    9 entries                                                                   
     n  l   j            E        occ.                                          
     1  0  0.50     -8206.4253   2.0000                                         
     2  0  0.50      -976.1748   2.0000                                         
     2  1  1.50      -839.0571   6.0000                                         
     3  0  0.50      -105.9991   2.0000                                         
     3  1  1.50       -66.4603   6.0000                                         
     3  2  2.50        -4.6458   9.0000                                         
     4  0  0.50        -4.4926   1.0000                                         
     4  1  1.50        -4.0817   0.0000                                         
     4  3  2.50        -1.3606   0.0000                                         
   Description                                                                  
     l       E           TYP  RCUT    TYP  RCUT                                 
     2     -4.6457903     23  2.300                                             
     2     -6.0063729     23  2.300                                             
     0     -4.4925590     23  2.300                                             
     0      5.0102601     23  2.300                                             
     1     -2.7211652     23  2.300                                             
     1     16.5183231     23  2.300                                             
  local pseudopotential read in
  partial core-charges read in
  partial kinetic energy density read in
  atomic valenz-charges read in
  non local Contribution for L=           2  read in
    real space projection operators read in
  non local Contribution for L=           2  read in
    real space projection operators read in
  non local Contribution for L=           0  read in
    real space projection operators read in
  non local Contribution for L=           0  read in
    real space projection operators read in
  non local Contribution for L=           1  read in
    real space projection operators read in
  non local Contribution for L=           1  read in
    real space projection operators read in
    PAW grid and wavefunctions read in

   number of l-projection  operators is LMAX  =           6
   number of lm-projection operators is LMMAX =          18

 POTCAR:    PAW_PBE Mn 06Sep2000                  
   VRHFIN =Mn: d6 s1                                                            
   LEXCH  = PE                                                                  
   EATOM  =   416.7541 eV,   30.6306 Ry                                         
                                                                                
   TITEL  = PAW_PBE Mn 06Sep2000                                                
   LULTRA =        F    use ultrasoft PP ?                                      
   IUNSCR =        1    unscreen: 0-lin 1-nonlin 2-no                           
   RPACOR =    2.000    partial core radius                                     
   POMASS =   54.938; ZVAL   =    7.000    mass and valenz                      
   RCORE  =    2.300    outmost cutoff radius                                   
   RWIGS  =    2.500; RWIGS  =    1.323    wigner-seitz radius (au A)           
   ENMAX  =  269.864; ENMIN  =  202.398 eV                                      
   RCLOC  =    1.725    cutoff for local pot                                    
   LCOR   =        T    correct aug charges                                     
   LPAW   =        T    paw PP                                                  
   EAUG   =  500.711                                                            
   DEXC   =    0.000                                                            
   RMAX   =    2.343    core radius for proj-oper                               
   RAUG   =    1.300    factor for augmentation sphere                          
   RDEP   =    2.338    radius for radial grids                                 
   RDEPT  =    1.911    core radius for aug-charge                              
                                                                                
   Atomic configuration                                                         
    9 entries                                                                   
     n  l   j            E        occ.                                          
     1  0  0.50     -6424.8288   2.0000                                         
     2  0  0.50      -739.1154   2.0000                                         
     2  1  1.50      -625.3949   6.0000                                         
     3  0  0.50       -81.6100   2.0000                                         
     3  1  1.50       -50.4667   6.0000                                         
     3  2  2.50        -3.3745   6.0000                                         
     4  0  0.50        -4.1331   1.0000                                         
     4  1  0.50        -4.0817   0.0000                                         
     4  3  2.50        -1.3606   0.0000                                         
   Description                                                                  
     l       E           TYP  RCUT    TYP  RCUT                                 
     2     -3.3744664     23  2.300                                             
     2     -4.7350490     23  2.300                                             
     0     -4.1331408     23  2.300                                             
     0      7.6656614     23  2.300                                             
     1     -2.7211652     23  2.300                                             
     1     20.4087390     23  2.300                                             
  local pseudopotential read in
  partial core-charges read in
  partial kinetic energy density read in
  atomic valenz-charges read in
  non local Contribution for L=           2  read in
    real space projection operators read in
  non local Contribution for L=           2  read in
    real space projection operators read in
  non local Contribution for L=           0  read in
    real space projection operators read in
  non local Contribution for L=           0  read in
    real space projection operators read in
  non local Contribution for L=           1  read in
    real space projection operators read in
  non local Contribution for L=           1  read in
    real space projection operators read in
    PAW grid and wavefunctions read in

   number of l-projection  operators is LMAX  =           6
   number of lm-projection operators is LMMAX =          18

 POTCAR:    PAW_PBE In 08Apr2002                  
   VRHFIN =In: s2p1                                                             
   LEXCH  = PE                                                                  
   EATOM  =    53.7908 eV,    3.9535 Ry                                         
                                                                                
   TITEL  = PAW_PBE In 08Apr2002                                                
   LULTRA =        F    use ultrasoft PP ?                                      
   IUNSCR =        1    unscreen: 0-lin 1-nonlin 2-no                           
   RPACOR =    2.400    partial core radius                                     
   POMASS =  114.820; ZVAL   =    3.000    mass and valenz                      
   RCORE  =    3.100    outmost cutoff radius                                   
   RWIGS  =    3.170; RWIGS  =    1.677    wigner-seitz radius (au A)           
   ENMAX  =   95.934; ENMIN  =   71.951 eV                                      
   ICORE  =        3    local potential                                         
   LCOR   =        T    correct aug charges                                     
   LPAW   =        T    paw PP                                                  
   EAUG   =  237.125                                                            
   DEXC   =    0.000                                                            
   RMAX   =    3.168    core radius for proj-oper                               
   RAUG   =    1.300    factor for augmentation sphere                          
   RDEP   =    3.187    radius for radial grids                                 
   RDEPT  =    2.711    core radius for aug-charge                              
                                                                                
   Atomic configuration                                                         
   13 entries                                                                   
     n  l   j            E        occ.                                          
     1  0  0.50    -27747.9169   2.0000                                         
     2  0  0.50     -4154.4438   2.0000                                         
     2  1  1.50     -3728.4305   6.0000                                         
     3  0  0.50      -788.3680   2.0000                                         
     3  1  1.50      -648.9215   6.0000                                         
     3  2  2.50      -432.5893  10.0000                                         
     4  0  0.50      -119.6363   2.0000                                         
     4  1  1.50       -78.1086   6.0000                                         
     4  2  2.50       -18.6227  10.0000                                         
     5  0  0.50        -8.2107   2.0000                                         
     5  1  0.50        -2.5185   1.0000                                         
     5  2  2.50        -1.3606   0.0000                                         
     4  3  2.50        -2.7212   0.0000                                         
   Description                                                                  
     l       E           TYP  RCUT    TYP  RCUT                                 
     0     -8.2107306     23  3.100                                             
     0     -6.1485975     23  3.100                                             
     1     -2.5184867     23  3.100                                             
     1      3.2427302     23  3.100                                             
     2     -1.3605826     23  3.100                                             
     3     -1.3605826     23  3.100                                             
  local pseudopotential read in
  partial core-charges read in
  partial kinetic energy density read in
  atomic valenz-charges read in
  non local Contribution for L=           0  read in
    real space projection operators read in
  non local Contribution for L=           0  read in
    real space projection operators read in
  non local Contribution for L=           1  read in
    real space projection operators read in
  non local Contribution for L=           1  read in
    real space projection operators read in
  non local Contribution for L=           2  read in
    real space projection operators read in
    PAW grid and wavefunctions read in

   number of l-projection  operators is LMAX  =           5
   number of lm-projection operators is LMMAX =          13

 Optimization of the real space projectors (new method)

 maximal supplied QI-value         = 16.25
 optimisation between [QCUT,QGAM] = [ 11.86, 23.89] = [ 39.41,159.82] Ry 
 Optimized for a Real-space Cutoff    1.33 Angstroem

   l    n(q)    QCUT    max X(q) W(low)/X(q) W(high)/X(q)  e(spline) 
   2      9    11.864    60.317    0.21E-03    0.51E-03    0.25E-06
   2      9    11.864    55.921    0.21E-03    0.51E-03    0.26E-06
   0      9    11.864    51.690    0.22E-03    0.30E-04    0.17E-06
   0      9    11.864    30.015    0.20E-03    0.28E-04    0.15E-06
   1      9    11.864    18.849    0.76E-04    0.33E-03    0.17E-06
   1      9    11.864    14.624    0.60E-04    0.28E-03    0.15E-06
 Optimization of the real space projectors (new method)

 maximal supplied QI-value         = 16.25
 optimisation between [QCUT,QGAM] = [ 11.86, 23.89] = [ 39.41,159.82] Ry 
 Optimized for a Real-space Cutoff    1.36 Angstroem

   l    n(q)    QCUT    max X(q) W(low)/X(q) W(high)/X(q)  e(spline) 
   2      9    11.864   110.144    0.49E-03    0.50E-03    0.21E-06
   2      9    11.864   103.200    0.49E-03    0.51E-03    0.22E-06
   0     10    11.864    68.437    0.12E-03    0.41E-04    0.21E-06
   0     10    11.864    33.971    0.11E-03    0.36E-04    0.19E-06
   1      9    11.864    17.065    0.24E-03    0.26E-03    0.93E-07
   1      9    11.864    12.540    0.19E-03    0.20E-03    0.80E-07
 Optimization of the real space projectors (new method)

 maximal supplied QI-value         = 12.09
 optimisation between [QCUT,QGAM] = [ 11.97, 23.95] = [ 40.14,160.58] Ry 
 Optimized for a Real-space Cutoff    1.63 Angstroem

   l    n(q)    QCUT    max X(q) W(low)/X(q) W(high)/X(q)  e(spline) 
   0     12    11.973   106.980    0.33E-03    0.16E-03    0.25E-05
   0     12    11.973    81.086    0.37E-03    0.18E-03    0.28E-05
   1     11    11.973    53.097    0.22E-03    0.42E-03    0.40E-05
   1     11    11.973    32.621    0.20E-03    0.40E-03    0.37E-05
   2     11    11.973     8.820    0.30E-03    0.17E-03    0.41E-06
  PAW_PBE Ni 02Aug2007                  :
 energy of atom  1       EATOM=-1077.6739
 kinetic energy error for atom=    0.0027 (will be added to EATOM!!)
  PAW_PBE Mn 06Sep2000                  :
 energy of atom  2       EATOM= -416.7541
 kinetic energy error for atom=    0.0022 (will be added to EATOM!!)
  PAW_PBE In 08Apr2002                  :
 energy of atom  3       EATOM=  -53.7908
 kinetic energy error for atom=    0.0000 (will be added to EATOM!!)


 POSCAR: Ni2MnIn                                 
  positions in direct lattice
  velocities in cartesian coordinates
 exchange correlation table for  LEXCH =        8
   RHO(1)=    0.500       N(1)  =     2000
   RHO(2)=  100.500       N(2)  =     4000



--------------------------------------------------------------------------------------------------------


 ion  position               nearest neighbor table
   1  0.250  0.265  0.265-  13 2.49  14 2.49  11 2.59  12 2.59   9 2.59  10 2.59  15 2.70  16 2.70
                             3 2.81   5 2.81   2 2.99   2 2.99
   2  0.750  0.265  0.265-  13 2.49  14 2.49  11 2.59  12 2.59   9 2.59  10 2.59  15 2.70  16 2.70
                             4 2.81   6 2.81   1 2.99   1 2.99
   3  0.250  0.735  0.265-  13 2.49  14 2.49  11 2.59  12 2.59   9 2.59  10 2.59  15 2.70  16 2.70
                             1 2.81   7 2.81   4 2.99   4 2.99
   4  0.750  0.735  0.265-  13 2.49  14 2.49  11 2.59  12 2.59   9 2.59  10 2.59  15 2.70  16 2.70
                             2 2.81   8 2.81   3 2.99   3 2.99
   5  0.250  0.265  0.735-  13 2.49  14 2.49  11 2.59  12 2.59   9 2.59  10 2.59  15 2.70  16 2.70
                             1 2.81   7 2.81   6 2.99   6 2.99
   6  0.750  0.265  0.735-  13 2.49  14 2.49  11 2.59  12 2.59   9 2.59  10 2.59  15 2.70  16 2.70
                             2 2.81   8 2.81   5 2.99   5 2.99
   7  0.250  0.735  0.735-  13 2.49  14 2.49  11 2.59  12 2.59   9 2.59  10 2.59  15 2.70  16 2.70
                             3 2.81   5 2.81   8 2.99   8 2.99
   8  0.750  0.735  0.735-  13 2.49  14 2.49  11 2.59  12 2.59   9 2.59  10 2.59  15 2.70  16 2.70
                             4 2.81   6 2.81   7 2.99   7 2.99
   9  0.500  0.500  0.000-   1 2.59   2 2.59   3 2.59   4 2.59   5 2.59   6 2.59   7 2.59   8 2.59
                            10 2.99  13 2.99  16 2.99  13 2.99  16 2.99  10 2.99
  10  0.000  0.500  0.000-   1 2.59   2 2.59   3 2.59   4 2.59   5 2.59   6 2.59   7 2.59   8 2.59
                             9 2.99  14 2.99  15 2.99  14 2.99  15 2.99   9 2.99
  11  0.000  0.000  0.500-   1 2.59   2 2.59   3 2.59   4 2.59   5 2.59   6 2.59   7 2.59   8 2.59
                            12 2.99  14 2.99  15 2.99  15 2.99  14 2.99  12 2.99
  12  0.500  0.000  0.500-   1 2.59   2 2.59   3 2.59   4 2.59   5 2.59   6 2.59   7 2.59   8 2.59
                            11 2.99  13 2.99  16 2.99  16 2.99  13 2.99  11 2.99
  13  0.500  0.500  0.500-   1 2.49   2 2.49   3 2.49   4 2.49   5 2.49   6 2.49   7 2.49   8 2.49
                             9 2.99  12 2.99  14 2.99   9 2.99  12 2.99  14 2.99
  14  0.000  0.500  0.500-   1 2.49   2 2.49   3 2.49   4 2.49   5 2.49   6 2.49   7 2.49   8 2.49
                            10 2.99  11 2.99  13 2.99  10 2.99  11 2.99  13 2.99
  15  0.000  0.000  0.000-   1 2.70   2 2.70   3 2.70   4 2.70   5 2.70   6 2.70   7 2.70   8 2.70
                            10 2.99  11 2.99  16 2.99  11 2.99  10 2.99  16 2.99
  16  0.500  0.000  0.000-   1 2.70   2 2.70   3 2.70   4 2.70   5 2.70   6 2.70   7 2.70   8 2.70
                             9 2.99  12 2.99  15 2.99  12 2.99   9 2.99  15 2.99

  LATTYP: Found a simple cubic cell.
 ALAT       =     5.9813497588
  
  Lattice vectors:
  
 A1 = (   5.9813497588,   0.0000000000,   0.0000000000)
 A2 = (   0.0000000000,   5.9813497588,   0.0000000000)
 A3 = (   0.0000000000,   0.0000000000,   5.9813497588)


Analysis of symmetry for initial positions (statically):
=====================================================================
 Subroutine PRICEL returns following result:
 
  LATTYP: Found a simple tetragonal cell.
 ALAT       =     5.9813497588
 C/A-ratio  =     0.5000000000
  
  Lattice vectors:
  
 A1 = (   0.0000000000,   5.9813497588,   0.0000000000)
 A2 = (   0.0000000000,   0.0000000000,  -5.9813497588)
 A3 = (  -2.9906748794,   0.0000000000,   0.0000000000)
 
   2 primitive cells build up your supercell.
 

 Routine SETGRP: Setting up the symmetry group for a 
 simple cubic supercell.


 Subroutine GETGRP returns: Found 16 space group operations
 (whereof 16 operations were pure point group operations)
 out of a pool of 48 trial point group operations.


The static configuration has the point symmetry D_4h.


Analysis of symmetry for dynamics (positions and initial velocities):
=====================================================================
 Subroutine PRICEL returns following result:
 
  LATTYP: Found a simple tetragonal cell.
 ALAT       =     5.9813497588
 C/A-ratio  =     0.5000000000
  
  Lattice vectors:
  
 A1 = (   0.0000000000,   5.9813497588,   0.0000000000)
 A2 = (   0.0000000000,   0.0000000000,  -5.9813497588)
 A3 = (  -2.9906748794,   0.0000000000,   0.0000000000)
 
   2 primitive cells build up your supercell.
 

 Routine SETGRP: Setting up the symmetry group for a 
 simple cubic supercell.


 Subroutine GETGRP returns: Found 16 space group operations
 (whereof 16 operations were pure point group operations)
 out of a pool of 48 trial point group operations.


The dynamic configuration has the point symmetry D_4h.


Analysis of structural, dynamic, and magnetic symmetry:
=====================================================================
 Subroutine PRICEL returns following result:
 
  LATTYP: Found a simple tetragonal cell.
 ALAT       =     5.9813497588
 C/A-ratio  =     0.5000000000
  
  Lattice vectors:
  
 A1 = (   0.0000000000,   5.9813497588,   0.0000000000)
 A2 = (   0.0000000000,   0.0000000000,  -5.9813497588)
 A3 = (  -2.9906748794,   0.0000000000,   0.0000000000)
 
   2 primitive cells build up your supercell.
 

 Routine SETGRP: Setting up the symmetry group for a 
 simple cubic supercell.


 Subroutine GETGRP returns: Found 16 space group operations
 (whereof 16 operations were pure point group operations)
 out of a pool of 48 trial point group operations.


The magnetic configuration has the point symmetry D_4h.


 Subroutine INISYM returns: Found 16 space group operations
 (whereof 16 operations are pure point group operations),
 and found     2 'primitive' translations



 KPOINTS: k-points                                

Automatic generation of k-mesh.
Space group operators:
 irot       det(A)        alpha          n_x          n_y          n_z        tau_x        tau_y        tau_z
    1     1.000000     0.000000     1.000000     0.000000     0.000000    -0.000000     0.000000    -0.000000
    2    -1.000000     0.000000     1.000000     0.000000     0.000000    -0.000000     0.000000    -0.000000
    3     1.000000   180.000000     0.000000     0.707107     0.707107    -0.000000     0.000000    -0.000000
    4    -1.000000   180.000000     0.000000     0.707107     0.707107    -0.000000     0.000000    -0.000000
    5     1.000000   180.000000     0.000000     0.000000     1.000000    -0.000000     0.000000    -0.000000
    6    -1.000000   180.000000     0.000000     0.000000     1.000000    -0.000000     0.000000    -0.000000
    7     1.000000    90.000000    -1.000000     0.000000     0.000000    -0.000000     0.000000    -0.000000
    8    -1.000000    90.000000    -1.000000     0.000000     0.000000    -0.000000     0.000000    -0.000000
    9     1.000000   180.000000     1.000000     0.000000     0.000000    -0.000000     0.000000    -0.000000
   10    -1.000000   180.000000     1.000000     0.000000     0.000000    -0.000000     0.000000    -0.000000
   11     1.000000    90.000000     1.000000     0.000000     0.000000    -0.000000     0.000000    -0.000000
   12    -1.000000    90.000000     1.000000     0.000000     0.000000    -0.000000     0.000000    -0.000000
   13     1.000000   180.000000     0.000000     1.000000     0.000000    -0.000000     0.000000    -0.000000
   14    -1.000000   180.000000     0.000000     1.000000     0.000000    -0.000000     0.000000    -0.000000
   15     1.000000   180.000000     0.000000    -0.707107     0.707107    -0.000000     0.000000    -0.000000
   16    -1.000000   180.000000     0.000000    -0.707107     0.707107    -0.000000     0.000000    -0.000000
 
 Subroutine IBZKPT returns following result:
 ===========================================
 
 Found     40 irreducible k-points:
 
 Following reciprocal coordinates:
            Coordinates               Weight
  0.000000  0.000000  0.000000      1.000000
  0.142857  0.000000  0.000000      2.000000
  0.285714  0.000000  0.000000      2.000000
  0.428571  0.000000  0.000000      2.000000
  0.000000  0.142857  0.000000      4.000000
  0.142857  0.142857  0.000000      8.000000
  0.285714  0.142857  0.000000      8.000000
  0.428571  0.142857  0.000000      8.000000
  0.000000  0.285714  0.000000      4.000000
  0.142857  0.285714  0.000000      8.000000
  0.285714  0.285714  0.000000      8.000000
  0.428571  0.285714  0.000000      8.000000
  0.000000  0.428571  0.000000      4.000000
  0.142857  0.428571  0.000000      8.000000
  0.285714  0.428571  0.000000      8.000000
  0.428571  0.428571  0.000000      8.000000
  0.000000  0.142857  0.142857      4.000000
  0.142857  0.142857  0.142857      8.000000
  0.285714  0.142857  0.142857      8.000000
  0.428571  0.142857  0.142857      8.000000
  0.000000  0.285714  0.142857      8.000000
  0.142857  0.285714  0.142857     16.000000
  0.285714  0.285714  0.142857     16.000000
  0.428571  0.285714  0.142857     16.000000
  0.000000  0.428571  0.142857      8.000000
  0.142857  0.428571  0.142857     16.000000
  0.285714  0.428571  0.142857     16.000000
  0.428571  0.428571  0.142857     16.000000
  0.000000  0.285714  0.285714      4.000000
  0.142857  0.285714  0.285714      8.000000
  0.285714  0.285714  0.285714      8.000000
  0.428571  0.285714  0.285714      8.000000
  0.000000  0.428571  0.285714      8.000000
  0.142857  0.428571  0.285714     16.000000
  0.285714  0.428571  0.285714     16.000000
  0.428571  0.428571  0.285714     16.000000
  0.000000  0.428571  0.428571      4.000000
  0.142857  0.428571  0.428571      8.000000
  0.285714  0.428571  0.428571      8.000000
  0.428571  0.428571  0.428571      8.000000
 
 Following cartesian coordinates:
            Coordinates               Weight
  0.000000  0.000000  0.000000      1.000000
  0.137570  0.000000  0.000000      2.000000
  0.275141  0.000000  0.000000      2.000000
  0.412711  0.000000  0.000000      2.000000
  0.000000  0.137570  0.000000      4.000000
  0.137570  0.137570  0.000000      8.000000
  0.275141  0.137570  0.000000      8.000000
  0.412711  0.137570  0.000000      8.000000
  0.000000  0.275141  0.000000      4.000000
  0.137570  0.275141  0.000000      8.000000
  0.275141  0.275141  0.000000      8.000000
  0.412711  0.275141  0.000000      8.000000
  0.000000  0.412711  0.000000      4.000000
  0.137570  0.412711  0.000000      8.000000
  0.275141  0.412711  0.000000      8.000000
  0.412711  0.412711  0.000000      8.000000
  0.000000  0.137570  0.137570      4.000000
  0.137570  0.137570  0.137570      8.000000
  0.275141  0.137570  0.137570      8.000000
  0.412711  0.137570  0.137570      8.000000
  0.000000  0.275141  0.137570      8.000000
  0.137570  0.275141  0.137570     16.000000
  0.275141  0.275141  0.137570     16.000000
  0.412711  0.275141  0.137570     16.000000
  0.000000  0.412711  0.137570      8.000000
  0.137570  0.412711  0.137570     16.000000
  0.275141  0.412711  0.137570     16.000000
  0.412711  0.412711  0.137570     16.000000
  0.000000  0.275141  0.275141      4.000000
  0.137570  0.275141  0.275141      8.000000
  0.275141  0.275141  0.275141      8.000000
  0.412711  0.275141  0.275141      8.000000
  0.000000  0.412711  0.275141      8.000000
  0.137570  0.412711  0.275141     16.000000
  0.275141  0.412711  0.275141     16.000000
  0.412711  0.412711  0.275141     16.000000
  0.000000  0.412711  0.412711      4.000000
  0.137570  0.412711  0.412711      8.000000
  0.275141  0.412711  0.412711      8.000000
  0.412711  0.412711  0.412711      8.000000
 


--------------------------------------------------------------------------------------------------------




 Dimension of arrays:
   k-points           NKPTS =     40   k-points in BZ     NKDIM =     40   number of bands    NBANDS=     96
   number of dos      NEDOS =    301   number of ions     NIONS =     16
   non local maximal  LDIM  =      6   non local SUM 2l+1 LMDIM =     18
   total plane-waves  NPLWV =  46656
   max r-space proj   IRMAX =   4002   max aug-charges    IRDMAX=  24792
   dimension x,y,z NGX =    36 NGY =   36 NGZ =   36
   dimension x,y,z NGXF=    72 NGYF=   72 NGZF=   72
   support grid    NGXF=    72 NGYF=   72 NGZF=   72
   ions per type =               8   6   2
   NGX,Y,Z   is equivalent  to a cutoff of  10.01, 10.01, 10.01 a.u.
   NGXF,Y,Z  is equivalent  to a cutoff of  20.01, 20.01, 20.01 a.u.

 SYSTEM =  Testrun for NiMnIn                      
 POSCAR =  Ni2MnIn                                 

 Startparameter for this run:
   NWRITE =      2    write-flag & timer
   PREC   = normal    normal or accurate (medium, high low for compatibility)
   ISTART =      0    job   : 0-new  1-cont  2-samecut
   ICHARG =      2    charge: 1-file 2-atom 10-const
   ISPIN  =      2    spin polarized calculation?
   LNONCOLLINEAR =      F non collinear calculations
   LSORBIT =      F    spin-orbit coupling
   INIWAV =      1    electr: 0-lowe 1-rand  2-diag
   LASPH  =      F    aspherical Exc in radial PAW
   METAGGA=      F    non-selfconsistent MetaGGA calc.

 Electronic Relaxation 1
   ENCUT  =  550.0 eV  40.42 Ry    6.36 a.u.  11.44 11.44 11.44*2*pi/ulx,y,z
   ENINI  =  550.0     initial cutoff
   ENAUG  =  544.6 eV  augmentation charge cutoff
   NELM   =     60;   NELMIN=  2; NELMDL= -5     # of ELM steps 
   EDIFF  = 0.1E-04   stopping-criterion for ELM
   LREAL  =      T    real-space projection
   NLSPLINE    = F    spline interpolate recip. space projectors
   LCOMPAT=      F    compatible to vasp.4.4
   GGA_COMPAT  = T    GGA compatible to vasp.4.4-vasp.4.6
   LMAXPAW     = -100 max onsite density
   LMAXMIX     =    2 max onsite mixed and CHGCAR
   VOSKOWN=      0    Vosko Wilk Nusair interpolation
   ROPT   =   -0.00050  -0.00050  -0.00050
 Ionic relaxation
   EDIFFG = -.1E-01   stopping-criterion for IOM
   NSW    =   1000    number of steps for IOM
   NBLOCK =      1;   KBLOCK =   1000    inner block; outer block 
   IBRION =      2    ionic relax: 0-MD 1-quasi-New 2-CG
   NFREE  =      1    steps in history (QN), initial steepest desc. (CG)
   ISIF   =      2    stress and relaxation
   IWAVPR =     11    prediction:  0-non 1-charg 2-wave 3-comb
   ISYM   =      2    0-nonsym 1-usesym 2-fastsym
   LCORR  =      T    Harris-Foulkes like correction to forces

   POTIM  = 0.5000    time-step for ionic-motion
   TEIN   =    0.0    initial temperature
   TEBEG  =    0.0;   TEEND  =   0.0 temperature during run
   SMASS  =  -3.00    Nose mass-parameter (am)
   estimated Nose-frequenzy (Omega)   =  0.10E-29 period in steps =****** mass=  -0.818E-27a.u.
   SCALEE = 1.0000    scale energy and forces
   NPACO  =    256;   APACO  = 16.0  distance and # of slots for P.C.
   PSTRESS=    0.0 pullay stress

  Mass of Ions in am
   POMASS =  58.69 54.94114.82
  Ionic Valenz
   ZVAL   =  10.00  7.00  3.00
  Atomic Wigner-Seitz radii
   RWIGS  =  -1.00 -1.00 -1.00
  virtual crystal weights 
   VCA    =   1.00  1.00  1.00
   NELECT =     128.0000    total number of electrons
   NUPDOWN=      -1.0000    fix difference up-down

 DOS related values:
   EMIN   =  10.00;   EMAX   =-10.00  energy-range for DOS
   EFERMI =   0.00
   ISMEAR =     0;   SIGMA  =   0.02  broadening in eV -4-tet -1-fermi 0-gaus

 Electronic relaxation 2 (details)
   IALGO  =     68    algorithm
   LDIAG  =      T    sub-space diagonalisation (order eigenvalues)
   LSUBROT=      F    optimize rotation matrix (better conditioning)
   TURBO    =      0    0=normal 1=particle mesh
   IRESTART =      0    0=no restart 2=restart with 2 vectors
   NREBOOT  =      0    no. of reboots
   NMIN     =      0    reboot dimension
   EREF     =   0.00    reference energy to select bands
   IMIX   =      4    mixing-type and parameters
     AMIX     =   0.40;   BMIX     =  1.00
     AMIX_MAG =   1.60;   BMIX_MAG =  1.00
     AMIN     =   0.10
     WC   =   100.;   INIMIX=   1;  MIXPRE=   1;  MAXMIX= -45

 Intra band minimization:
   WEIMIN = 0.0010     energy-eigenvalue tresh-hold
   EBREAK =  0.26E-07  absolut break condition
   DEPER  =   0.30     relativ break condition  

   TIME   =   0.40     timestep for ELM

  volume/ion in A,a.u.               =      13.37        90.26
  Fermi-wavevector in a.u.,A,eV,Ry     =   1.379364  2.606620 25.887066  1.902646
  Thomas-Fermi vector in A             =   2.504340

 Write flags
   LWAVE        =      F    write WAVECAR
   LDOWNSAMPLE  =      F    k-point downsampling of WAVECAR
   LCHARG       =      T    write CHGCAR
   LVTOT        =      F    write LOCPOT, total local potential
   LVHAR        =      F    write LOCPOT, Hartree potential only
   LELF         =      F    write electronic localiz. function (ELF)
   LORBIT       =     11    0 simple, 1 ext, 2 COOP (PROOUT), +10 PAW based schemes


 Dipole corrections
   LMONO  =      F    monopole corrections only (constant potential shift)
   LDIPOL =      F    correct potential (dipole corrections)
   IDIPOL =      0    1-x, 2-y, 3-z, 4-all directions 
   EPSILON=  1.0000000 bulk dielectric constant

 Exchange correlation treatment:
   GGA     =    --    GGA type
   LEXCH   =     8    internal setting for exchange type
   VOSKOWN=      0    Vosko Wilk Nusair interpolation
   LHFCALC =     F    Hartree Fock is set to
   LHFONE  =     F    Hartree Fock one center treatment
   AEXX    =    0.0000 exact exchange contribution

 Linear response parameters
   LEPSILON=     F    determine dielectric tensor
   LRPA    =     F    only Hartree local field effects (RPA)
   LNABLA  =     F    use nabla operator in PAW spheres
   LVEL    =     F    velocity operator in full k-point grid
   LINTERFAST=   F  fast interpolation
   KINTER  =     0    interpolate to denser k-point grid
   CSHIFT  =0.1000    complex shift for real part using Kramers Kronig
   OMEGAMAX=  -1.0    maximum frequency
   DEG_THRESHOLD= 0.2000000E-02 threshold for treating states as degnerate
   RTIME   =   -0.100 relaxation time in fs
  (WPLASMAI=    0.000 imaginary part of plasma frequency in eV, 0.658/RTIME)
   DFIELD  = 0.0000000 0.0000000 0.0000000 field for delta impulse in time

 Orbital magnetization related:
   ORBITALMAG=     F  switch on orbital magnetization
   LCHIMAG   =     F  perturbation theory with respect to B field
   DQ        =  0.001000  dq finite difference perturbation B field
   LLRAUG    =     F  two centre corrections for induced B field



--------------------------------------------------------------------------------------------------------


 conjugate gradient relaxation of ions
 charge density and potential will be updated during run
 spin polarized calculation
 RMM-DIIS sequential band-by-band and
  variant of blocked Davidson during initial phase
 perform sub-space diagonalisation
    before iterative eigenvector-optimisation
 modified Broyden-mixing scheme, WC =      100.0
 initial mixing is a Kerker type mixing with AMIX =  0.4000 and BMIX =      1.0000
 Hartree-type preconditioning will be used
 using additional bands           32
 real space projection scheme for non local part
 use partial core corrections
 calculate Harris-corrections to forces   (improved forces if not selfconsistent)
 use gradient corrections 
 use of overlap-Matrix (Vanderbilt PP)
 Gauss-broadening in eV      SIGMA  =   0.02


--------------------------------------------------------------------------------------------------------


  energy-cutoff  :      550.00
  volume of cell :      213.99
      direct lattice vectors                 reciprocal lattice vectors
     5.981349759  0.000000000  0.000000000     0.167186344  0.000000000  0.000000000
     0.000000000  5.981349759  0.000000000     0.000000000  0.167186344  0.000000000
     0.000000000  0.000000000  5.981349759     0.000000000  0.000000000  0.167186344

  length of vectors
     5.981349759  5.981349759  5.981349759     0.167186344  0.167186344  0.167186344



 k-points in units of 2pi/SCALE and weight: k-points                                
   0.00000000  0.00000000  0.00000000       0.003
   0.13757048  0.00000000  0.00000000       0.006
   0.27514096  0.00000000  0.00000000       0.006
   0.41271143  0.00000000  0.00000000       0.006
   0.00000000  0.13757048  0.00000000       0.012
   0.13757048  0.13757048  0.00000000       0.023
   0.27514096  0.13757048  0.00000000       0.023
   0.41271143  0.13757048  0.00000000       0.023
   0.00000000  0.27514096  0.00000000       0.012
   0.13757048  0.27514096  0.00000000       0.023
   0.27514096  0.27514096  0.00000000       0.023
   0.41271143  0.27514096  0.00000000       0.023
   0.00000000  0.41271143  0.00000000       0.012
   0.13757048  0.41271143  0.00000000       0.023
   0.27514096  0.41271143  0.00000000       0.023
   0.41271143  0.41271143  0.00000000       0.023
   0.00000000  0.13757048  0.13757048       0.012
   0.13757048  0.13757048  0.13757048       0.023
   0.27514096  0.13757048  0.13757048       0.023
   0.41271143  0.13757048  0.13757048       0.023
   0.00000000  0.27514096  0.13757048       0.023
   0.13757048  0.27514096  0.13757048       0.047
   0.27514096  0.27514096  0.13757048       0.047
   0.41271143  0.27514096  0.13757048       0.047
   0.00000000  0.41271143  0.13757048       0.023
   0.13757048  0.41271143  0.13757048       0.047
   0.27514096  0.41271143  0.13757048       0.047
   0.41271143  0.41271143  0.13757048       0.047
   0.00000000  0.27514096  0.27514096       0.012
   0.13757048  0.27514096  0.27514096       0.023
   0.27514096  0.27514096  0.27514096       0.023
   0.41271143  0.27514096  0.27514096       0.023
   0.00000000  0.41271143  0.27514096       0.023
   0.13757048  0.41271143  0.27514096       0.047
   0.27514096  0.41271143  0.27514096       0.047
   0.41271143  0.41271143  0.27514096       0.047
   0.00000000  0.41271143  0.41271143       0.012
   0.13757048  0.41271143  0.41271143       0.023
   0.27514096  0.41271143  0.41271143       0.023
   0.41271143  0.41271143  0.41271143       0.023

 k-points in reciprocal lattice and weights: k-points                                
   0.00000000  0.00000000  0.00000000       0.003
   0.14285714  0.00000000  0.00000000       0.006
   0.28571429  0.00000000  0.00000000       0.006
   0.42857143  0.00000000  0.00000000       0.006
   0.00000000  0.14285714  0.00000000       0.012
   0.14285714  0.14285714  0.00000000       0.023
   0.28571429  0.14285714  0.00000000       0.023
   0.42857143  0.14285714  0.00000000       0.023
   0.00000000  0.28571429  0.00000000       0.012
   0.14285714  0.28571429  0.00000000       0.023
   0.28571429  0.28571429  0.00000000       0.023
   0.42857143  0.28571429  0.00000000       0.023
   0.00000000  0.42857143  0.00000000       0.012
   0.14285714  0.42857143  0.00000000       0.023
   0.28571429  0.42857143  0.00000000       0.023
   0.42857143  0.42857143  0.00000000       0.023
   0.00000000  0.14285714  0.14285714       0.012
   0.14285714  0.14285714  0.14285714       0.023
   0.28571429  0.14285714  0.14285714       0.023
   0.42857143  0.14285714  0.14285714       0.023
   0.00000000  0.28571429  0.14285714       0.023
   0.14285714  0.28571429  0.14285714       0.047
   0.28571429  0.28571429  0.14285714       0.047
   0.42857143  0.28571429  0.14285714       0.047
   0.00000000  0.42857143  0.14285714       0.023
   0.14285714  0.42857143  0.14285714       0.047
   0.28571429  0.42857143  0.14285714       0.047
   0.42857143  0.42857143  0.14285714       0.047
   0.00000000  0.28571429  0.28571429       0.012
   0.14285714  0.28571429  0.28571429       0.023
   0.28571429  0.28571429  0.28571429       0.023
   0.42857143  0.28571429  0.28571429       0.023
   0.00000000  0.42857143  0.28571429       0.023
   0.14285714  0.42857143  0.28571429       0.047
   0.28571429  0.42857143  0.28571429       0.047
   0.42857143  0.42857143  0.28571429       0.047
   0.00000000  0.42857143  0.42857143       0.012
   0.14285714  0.42857143  0.42857143       0.023
   0.28571429  0.42857143  0.42857143       0.023
   0.42857143  0.42857143  0.42857143       0.023

 position of ions in fractional coordinates (direct lattice) 
   0.25000000  0.26510067  0.26510067
   0.75000000  0.26510067  0.26510067
   0.25000000  0.73489933  0.26510067
   0.75000000  0.73489933  0.26510067
   0.25000000  0.26510067  0.73489933
   0.75000000  0.26510067  0.73489933
   0.25000000  0.73489933  0.73489933
   0.75000000  0.73489933  0.73489933
   0.50000000  0.50000000  0.00000000
   0.00000000  0.50000000  0.00000000
   0.00000000  0.00000000  0.50000000
   0.50000000  0.00000000  0.50000000
   0.50000000  0.50000000  0.50000000
   0.00000000  0.50000000  0.50000000
   0.00000000  0.00000000  0.00000000
   0.50000000  0.00000000  0.00000000

 position of ions in cartesian coordinates  (Angst):
   1.49533744  1.58565984  1.58565984
   4.48601232  1.58565984  1.58565984
   1.49533744  4.39568992  1.58565984
   4.48601232  4.39568992  1.58565984
   1.49533744  1.58565984  4.39568992
   4.48601232  1.58565984  4.39568992
   1.49533744  4.39568992  4.39568992
   4.48601232  4.39568992  4.39568992
   2.99067488  2.99067488  0.00000000
   0.00000000  2.99067488  0.00000000
   0.00000000  0.00000000  2.99067488
   2.99067488  0.00000000  2.99067488
   2.99067488  2.99067488  2.99067488
   0.00000000  2.99067488  2.99067488
   0.00000000  0.00000000  0.00000000
   2.99067488  0.00000000  0.00000000



--------------------------------------------------------------------------------------------------------


 k-point  1 :   0.0000 0.0000 0.0000  plane waves:    6235
 k-point  2 :   0.1429 0.0000 0.0000  plane waves:    6263
 k-point  3 :   0.2857 0.0000 0.0000  plane waves:    6291
 k-point  4 :   0.4286 0.0000 0.0000  plane waves:    6283
 k-point  5 :   0.0000 0.1429 0.0000  plane waves:    6263
 k-point  6 :   0.1429 0.1429 0.0000  plane waves:    6282
 k-point  7 :   0.2857 0.1429 0.0000  plane waves:    6281
 k-point  8 :   0.4286 0.1429 0.0000  plane waves:    6289
 k-point  9 :   0.0000 0.2857 0.0000  plane waves:    6291
 k-point 10 :   0.1429 0.2857 0.0000  plane waves:    6281
 k-point 11 :   0.2857 0.2857 0.0000  plane waves:    6252
 k-point 12 :   0.4286 0.2857 0.0000  plane waves:    6263
 k-point 13 :   0.0000 0.4286 0.0000  plane waves:    6283
 k-point 14 :   0.1429 0.4286 0.0000  plane waves:    6289
 k-point 15 :   0.2857 0.4286 0.0000  plane waves:    6263
 k-point 16 :   0.4286 0.4286 0.0000  plane waves:    6268
 k-point 17 :   0.0000 0.1429 0.1429  plane waves:    6282
 k-point 18 :   0.1429 0.1429 0.1429  plane waves:    6289
 k-point 19 :   0.2857 0.1429 0.1429  plane waves:    6270
 k-point 20 :   0.4286 0.1429 0.1429  plane waves:    6279
 k-point 21 :   0.0000 0.2857 0.1429  plane waves:    6281
 k-point 22 :   0.1429 0.2857 0.1429  plane waves:    6270
 k-point 23 :   0.2857 0.2857 0.1429  plane waves:    6267
 k-point 24 :   0.4286 0.2857 0.1429  plane waves:    6259
 k-point 25 :   0.0000 0.4286 0.1429  plane waves:    6289
 k-point 26 :   0.1429 0.4286 0.1429  plane waves:    6279
 k-point 27 :   0.2857 0.4286 0.1429  plane waves:    6259
 k-point 28 :   0.4286 0.4286 0.1429  plane waves:    6269
 k-point 29 :   0.0000 0.2857 0.2857  plane waves:    6252
 k-point 30 :   0.1429 0.2857 0.2857  plane waves:    6267
 k-point 31 :   0.2857 0.2857 0.2857  plane waves:    6283
 k-point 32 :   0.4286 0.2857 0.2857  plane waves:    6273
 k-point 33 :   0.0000 0.4286 0.2857  plane waves:    6263
 k-point 34 :   0.1429 0.4286 0.2857  plane waves:    6259
 k-point 35 :   0.2857 0.4286 0.2857  plane waves:    6273
 k-point 36 :   0.4286 0.4286 0.2857  plane waves:    6243
 k-point 37 :   0.0000 0.4286 0.4286  plane waves:    6268
 k-point 38 :   0.1429 0.4286 0.4286  plane waves:    6269
 k-point 39 :   0.2857 0.4286 0.4286  plane waves:    6243
 k-point 40 :   0.4286 0.4286 0.4286  plane waves:    6218

 maximum and minimum number of plane-waves per node :      6291     6218

 maximum number of plane-waves:      6291
 maximum index in each direction: 
   IXMAX=   11   IYMAX=   11   IZMAX=   11
   IXMIN=  -11   IYMIN=  -11   IZMIN=  -11


 serial   3D FFT for wavefunctions
 parallel 3D FFT for charge:
    minimum data exchange during FFTs selected (reduces bandwidth)


 total amount of memory used by VASP MPI-rank0   112593. kBytes
=======================================================================

   base      :      30000. kBytes
   nonlr-proj:       6793. kBytes
   fftplans  :       1269. kBytes
   grid      :       6573. kBytes
   one-center:        497. kBytes
   wavefun   :      67461. kBytes

     INWAV:  cpu time    0.0000: real time    0.0000
 Broyden mixing: mesh for mixing (old mesh)
   NGX = 23   NGY = 23   NGZ = 23
  (NGX  = 72   NGY  = 72   NGZ  = 72)
  gives a total of  12167 points

 initial charge density was supplied:
 charge density of overlapping atoms calculated
 number of electron     128.0000000 magnetization      24.8000000
 keeping initial charge density in first step


--------------------------------------------------------------------------------------------------------


 Maximum index for non-local projection operator         3887
 Maximum index for augmentation-charges         2103 (set IRDMAX)


--------------------------------------------------------------------------------------------------------


 First call to EWALD:  gamma=   0.296
 Maximum number of real-space cells 3x 3x 3
 Maximum number of reciprocal cells 3x 3x 3

    FEWALD:  cpu time    0.0020: real time    0.0020


--------------------------------------- Iteration      1(   1)  ---------------------------------------


    POTLOK:  cpu time    0.1067: real time    0.1104
    SETDIJ:  cpu time    0.0384: real time    0.0384
     EDDAV:  cpu time   27.8632: real time   27.8963
       DOS:  cpu time    0.0043: real time    0.0044
    --------------------------------------------
      LOOP:  cpu time   28.0127: real time   28.0495

 eigenvalue-minimisations  : 15360
 total energy-change (2. order) : 0.1060937E+04  (-0.5326717E+04)
 number of electron     128.0000000 magnetization      24.8000000
 augmentation part      128.0000000 magnetization      24.8000000

 Free energy of the ion-electron system (eV)
  ---------------------------------------------------
  alpha Z        PSCENC =       525.83532914
  Ewald energy   TEWEN  =     -9179.64166542
  -Hartree energ DENC   =     -3229.18935370
  -exchange      EXHF   =         0.00000000
  -V(xc)+E(xc)   XCENC  =        78.38226436
  PAW double counting   =     10320.96726947   -10647.99417394
  entropy T*S    EENTRO =        -0.00301813
  eigenvalues    EBANDS =      1963.11826067
  atomic energy  EATOM  =     11229.46195210
  Solvation  Ediel_sol  =         0.00000000
  ---------------------------------------------------
  free energy    TOTEN  =      1060.93686454 eV

  energy without entropy =     1060.93988267  energy(sigma->0) =     1060.93837360


--------------------------------------------------------------------------------------------------------




--------------------------------------- Iteration      1(   2)  ---------------------------------------


     EDDAV:  cpu time   27.7362: real time   27.7738
       DOS:  cpu time    0.0042: real time    0.0042
    --------------------------------------------
      LOOP:  cpu time   27.7405: real time   27.7781

 eigenvalue-minimisations  : 15360
 total energy-change (2. order) :-0.1061332E+04  (-0.1008352E+04)
 number of electron     128.0000000 magnetization      24.8000000
 augmentation part      128.0000000 magnetization      24.8000000

 Free energy of the ion-electron system (eV)
  ---------------------------------------------------
  alpha Z        PSCENC =       525.83532914
  Ewald energy   TEWEN  =     -9179.64166542
  -Hartree energ DENC   =     -3229.18935370
  -exchange      EXHF   =         0.00000000
  -V(xc)+E(xc)   XCENC  =        78.38226436
  PAW double counting   =     10320.96726947   -10647.99417394
  entropy T*S    EENTRO =        -0.00327401
  eigenvalues    EBANDS =       901.78648009
  atomic energy  EATOM  =     11229.46195210
  Solvation  Ediel_sol  =         0.00000000
  ---------------------------------------------------
  free energy    TOTEN  =        -0.39517193 eV

  energy without entropy =       -0.39189791  energy(sigma->0) =       -0.39353492


--------------------------------------------------------------------------------------------------------




--------------------------------------- Iteration      1(   3)  ---------------------------------------


     EDDAV:  cpu time   28.7130: real time   28.7480
       DOS:  cpu time    0.0042: real time    0.0042
    --------------------------------------------
      LOOP:  cpu time   28.7173: real time   28.7523

 eigenvalue-minimisations  : 16020
 total energy-change (2. order) :-0.1116278E+03  (-0.9700513E+02)
 number of electron     128.0000000 magnetization      24.8000000
 augmentation part      128.0000000 magnetization      24.8000000

 Free energy of the ion-electron system (eV)
  ---------------------------------------------------
  alpha Z        PSCENC =       525.83532914
  Ewald energy   TEWEN  =     -9179.64166542
  -Hartree energ DENC   =     -3229.18935370
  -exchange      EXHF   =         0.00000000
  -V(xc)+E(xc)   XCENC  =        78.38226436
  PAW double counting   =     10320.96726947   -10647.99417394
  entropy T*S    EENTRO =        -0.00415314
  eigenvalues    EBANDS =       790.15960782
  atomic energy  EATOM  =     11229.46195210
  Solvation  Ediel_sol  =         0.00000000
  ---------------------------------------------------
  free energy    TOTEN  =      -112.02292333 eV

  energy without entropy =     -112.01877019  energy(sigma->0) =     -112.02084676


--------------------------------------------------------------------------------------------------------




--------------------------------------- Iteration      1(   4)  ---------------------------------------


     EDDAV:  cpu time   33.1760: real time   33.2325
       DOS:  cpu time    0.0041: real time    0.0041
    --------------------------------------------
      LOOP:  cpu time   33.1800: real time   33.2365

 eigenvalue-minimisations  : 19152
 total energy-change (2. order) :-0.3658603E+01  (-0.3588583E+01)
 number of electron     128.0000000 magnetization      24.8000000
 augmentation part      128.0000000 magnetization      24.8000000

 Free energy of the ion-electron system (eV)
  ---------------------------------------------------
  alpha Z        PSCENC =       525.83532914
  Ewald energy   TEWEN  =     -9179.64166542
  -Hartree energ DENC   =     -3229.18935370
  -exchange      EXHF   =         0.00000000
  -V(xc)+E(xc)   XCENC  =        78.38226436
  PAW double counting   =     10320.96726947   -10647.99417394
  entropy T*S    EENTRO =        -0.00318650
  eigenvalues    EBANDS =       786.50003864
  atomic energy  EATOM  =     11229.46195210
  Solvation  Ediel_sol  =         0.00000000
  ---------------------------------------------------
  free energy    TOTEN  =      -115.68152586 eV

  energy without entropy =     -115.67833937  energy(sigma->0) =     -115.67993262


--------------------------------------------------------------------------------------------------------




--------------------------------------- Iteration      1(   5)  ---------------------------------------


     EDDAV:  cpu time   33.4631: real time   33.5211
       DOS:  cpu time    0.0042: real time    0.0042
    CHARGE:  cpu time    0.7491: real time    0.7497
    MIXING:  cpu time    0.0016: real time    0.0016
    --------------------------------------------
      LOOP:  cpu time   34.2180: real time   34.2766

 eigenvalue-minimisations  : 19380
 total energy-change (2. order) :-0.1258996E+00  (-0.1258232E+00)
 number of electron     127.9999616 magnetization      21.2624248
 augmentation part       60.5692978 magnetization      13.5693148

 Broyden mixing:
  rms(total) = 0.34738E+01    rms(broyden)= 0.34737E+01
  rms(prec ) = 0.53444E+01
  weight for this iteration     100.00

 Free energy of the ion-electron system (eV)
  ---------------------------------------------------
  alpha Z        PSCENC =       525.83532914
  Ewald energy   TEWEN  =     -9179.64166542
  -Hartree energ DENC   =     -3229.18935370
  -exchange      EXHF   =         0.00000000
  -V(xc)+E(xc)   XCENC  =        78.38226436
  PAW double counting   =     10320.96726947   -10647.99417394
  entropy T*S    EENTRO =        -0.00314597
  eigenvalues    EBANDS =       786.37409849
  atomic energy  EATOM  =     11229.46195210
  Solvation  Ediel_sol  =         0.00000000
  ---------------------------------------------------
  free energy    TOTEN  =      -115.80742549 eV

  energy without entropy =     -115.80427952  energy(sigma->0) =     -115.80585250


--------------------------------------------------------------------------------------------------------




--------------------------------------- Iteration      1(   6)  ---------------------------------------


    POTLOK:  cpu time    0.0992: real time    0.0993
    SETDIJ:  cpu time    0.0370: real time    0.0371
    EDDIAG:  cpu time    3.9227: real time    3.9273
  RMM-DIIS:  cpu time   11.6597: real time   11.6731
    ORTHCH:  cpu time    0.8184: real time    0.8194
       DOS:  cpu time    0.0046: real time    0.0046
    CHARGE:  cpu time    0.7532: real time    0.7538
    MIXING:  cpu time    0.0017: real time    0.0017
    --------------------------------------------
      LOOP:  cpu time   17.2965: real time   17.3163

 eigenvalue-minimisations  : 15360
 total energy-change (2. order) : 0.3251959E+01  (-0.1327496E+02)
 number of electron     127.9999783 magnetization      21.7136238
 augmentation part       70.3461276 magnetization      16.4928551

 Broyden mixing:
  rms(total) = 0.51316E+01    rms(broyden)= 0.51314E+01
  rms(prec ) = 0.75214E+01
  weight for this iteration     100.00

 eigenvalues of (default mixing * dielectric matrix)
  average eigenvalue GAMMA=   0.1944
  0.1944

 Free energy of the ion-electron system (eV)
  ---------------------------------------------------
  alpha Z        PSCENC =       525.83532914
  Ewald energy   TEWEN  =     -9179.64166542
  -Hartree energ DENC   =     -2992.55894801
  -exchange      EXHF   =         0.00000000
  -V(xc)+E(xc)   XCENC  =        66.01709644
  PAW double counting   =     11088.09320192   -11380.85612734
  entropy T*S    EENTRO =        -0.00676401
  eigenvalues    EBANDS =       531.10045830
  atomic energy  EATOM  =     11229.46195210
  Solvation  Ediel_sol  =         0.00000000
  ---------------------------------------------------
  free energy    TOTEN  =      -112.55546689 eV

  energy without entropy =     -112.54870288  energy(sigma->0) =     -112.55208488


--------------------------------------------------------------------------------------------------------




--------------------------------------- Iteration      1(   7)  ---------------------------------------


    POTLOK:  cpu time    0.0996: real time    0.0998
    SETDIJ:  cpu time    0.0370: real time    0.0371
    EDDIAG:  cpu time    3.9452: real time    3.9496
  RMM-DIIS:  cpu time   11.7715: real time   11.7870
    ORTHCH:  cpu time    0.8202: real time    0.8215
       DOS:  cpu time    0.0044: real time    0.0044
    CHARGE:  cpu time    0.7554: real time    0.7562
    MIXING:  cpu time    0.0017: real time    0.0017
    --------------------------------------------
      LOOP:  cpu time   17.4350: real time   17.4573

 eigenvalue-minimisations  : 15360
 total energy-change (2. order) : 0.1777279E+00  (-0.2252062E+01)
 number of electron     127.9999531 magnetization      21.6311016
 augmentation part       70.4460641 magnetization      14.9783297

 Broyden mixing:
  rms(total) = 0.37476E+01    rms(broyden)= 0.37474E+01
  rms(prec ) = 0.64083E+01
  weight for this iteration     100.00

 eigenvalues of (default mixing * dielectric matrix)
  average eigenvalue GAMMA=   0.4288
  0.5612  0.2964

 Free energy of the ion-electron system (eV)
  ---------------------------------------------------
  alpha Z        PSCENC =       525.83532914
  Ewald energy   TEWEN  =     -9179.64166542
  -Hartree energ DENC   =     -2979.05294629
  -exchange      EXHF   =         0.00000000
  -V(xc)+E(xc)   XCENC  =        65.64994912
  PAW double counting   =     11319.09810774   -11614.77212995
  entropy T*S    EENTRO =        -0.00226111
  eigenvalues    EBANDS =       521.04592568
  atomic energy  EATOM  =     11229.46195210
  Solvation  Ediel_sol  =         0.00000000
  ---------------------------------------------------
  free energy    TOTEN  =      -112.37773899 eV

  energy without entropy =     -112.37547788  energy(sigma->0) =     -112.37660844


--------------------------------------------------------------------------------------------------------




--------------------------------------- Iteration      1(   8)  ---------------------------------------


    POTLOK:  cpu time    0.1094: real time    0.1100
    SETDIJ:  cpu time    0.0372: real time    0.0373
    EDDIAG:  cpu time    3.9532: real time    3.9585
  RMM-DIIS:  cpu time   11.7698: real time   11.7846
    ORTHCH:  cpu time    0.8252: real time    0.8262
       DOS:  cpu time    0.0043: real time    0.0045
    CHARGE:  cpu time    0.7567: real time    0.7576
    MIXING:  cpu time    0.0017: real time    0.0017
    --------------------------------------------
      LOOP:  cpu time   17.4576: real time   17.4803

 eigenvalue-minimisations  : 15360
 total energy-change (2. order) : 0.8832338E+01  (-0.1528081E+01)
 number of electron     127.9999678 magnetization      22.8511520
 augmentation part       67.2469514 magnetization      16.5949668

 Broyden mixing:
  rms(total) = 0.15619E+01    rms(broyden)= 0.15617E+01
  rms(prec ) = 0.24189E+01
  weight for this iteration     100.00

 eigenvalues of (default mixing * dielectric matrix)
  average eigenvalue GAMMA=   0.4775
  0.7762  0.4758  0.1804

 Free energy of the ion-electron system (eV)
  ---------------------------------------------------
  alpha Z        PSCENC =       525.83532914
  Ewald energy   TEWEN  =     -9179.64166542
  -Hartree energ DENC   =     -3048.66562158
  -exchange      EXHF   =         0.00000000
  -V(xc)+E(xc)   XCENC  =        69.90474547
  PAW double counting   =     11741.34396221   -12066.11702102
  entropy T*S    EENTRO =        -0.00460558
  eigenvalues    EBANDS =       624.33752382
  atomic energy  EATOM  =     11229.46195210
  Solvation  Ediel_sol  =         0.00000000
  ---------------------------------------------------
  free energy    TOTEN  =      -103.54540087 eV

  energy without entropy =     -103.54079529  energy(sigma->0) =     -103.54309808


--------------------------------------------------------------------------------------------------------




--------------------------------------- Iteration      1(   9)  ---------------------------------------


    POTLOK:  cpu time    0.0996: real time    0.0999
    SETDIJ:  cpu time    0.0373: real time    0.0374
    EDDIAG:  cpu time    3.9620: real time    3.9672
  RMM-DIIS:  cpu time   11.7414: real time   11.7580
    ORTHCH:  cpu time    0.8225: real time    0.8235
       DOS:  cpu time    0.0044: real time    0.0046
    CHARGE:  cpu time    0.7569: real time    0.7577
    MIXING:  cpu time    0.0019: real time    0.0019
    --------------------------------------------
      LOOP:  cpu time   17.4260: real time   17.4501

 eigenvalue-minimisations  : 15361
 total energy-change (2. order) :-0.1097567E+00  (-0.1709106E+00)
 number of electron     127.9999685 magnetization      24.1398715
 augmentation part       67.1651688 magnetization      17.7823971

 Broyden mixing:
  rms(total) = 0.12327E+01    rms(broyden)= 0.12326E+01
  rms(prec ) = 0.18127E+01
  weight for this iteration     100.00

 eigenvalues of (default mixing * dielectric matrix)
  average eigenvalue GAMMA=   0.4823
  0.7958  0.5843  0.1929  0.3562

 Free energy of the ion-electron system (eV)
  ---------------------------------------------------
  alpha Z        PSCENC =       525.83532914
  Ewald energy   TEWEN  =     -9179.64166542
  -Hartree energ DENC   =     -3043.95465596
  -exchange      EXHF   =         0.00000000
  -V(xc)+E(xc)   XCENC  =        72.18397378
  PAW double counting   =     12032.24637839   -12364.99543862
  entropy T*S    EENTRO =        -0.00255093
  eigenvalues    EBANDS =       625.21151993
  atomic energy  EATOM  =     11229.46195210
  Solvation  Ediel_sol  =         0.00000000
  ---------------------------------------------------
  free energy    TOTEN  =      -103.65515759 eV

  energy without entropy =     -103.65260666  energy(sigma->0) =     -103.65388213


--------------------------------------------------------------------------------------------------------




--------------------------------------- Iteration      1(  10)  ---------------------------------------


    POTLOK:  cpu time    0.0995: real time    0.0997
    SETDIJ:  cpu time    0.0372: real time    0.0373
    EDDIAG:  cpu time    3.9706: real time    3.9758
  RMM-DIIS:  cpu time   11.9034: real time   11.9193
    ORTHCH:  cpu time    0.8212: real time    0.8221
       DOS:  cpu time    0.0043: real time    0.0045
    CHARGE:  cpu time    0.7524: real time    0.7532
    MIXING:  cpu time    0.0020: real time    0.0020
    --------------------------------------------
      LOOP:  cpu time   17.5907: real time   17.6140

 eigenvalue-minimisations  : 15367
 total energy-change (2. order) : 0.3224531E+00  (-0.1015056E+00)
 number of electron     127.9999647 magnetization      25.7572976
 augmentation part       67.9244462 magnetization      19.3769228

 Broyden mixing:
  rms(total) = 0.58620E+00    rms(broyden)= 0.58617E+00
  rms(prec ) = 0.80493E+00
  weight for this iteration     100.00

 eigenvalues of (default mixing * dielectric matrix)
  average eigenvalue GAMMA=   0.6820
  1.4990  0.9808  0.5055  0.1913  0.2331

 Free energy of the ion-electron system (eV)
  ---------------------------------------------------
  alpha Z        PSCENC =       525.83532914
  Ewald energy   TEWEN  =     -9179.64166542
  -Hartree energ DENC   =     -3029.33869890
  -exchange      EXHF   =         0.00000000
  -V(xc)+E(xc)   XCENC  =        73.67085944
  PAW double counting   =     12240.53037437   -12575.12640045
  entropy T*S    EENTRO =        -0.00200461
  eigenvalues    EBANDS =       611.27754989
  atomic energy  EATOM  =     11229.46195210
  Solvation  Ediel_sol  =         0.00000000
  ---------------------------------------------------
  free energy    TOTEN  =      -103.33270445 eV

  energy without entropy =     -103.33069984  energy(sigma->0) =     -103.33170215


--------------------------------------------------------------------------------------------------------




--------------------------------------- Iteration      1(  11)  ---------------------------------------


    POTLOK:  cpu time    0.1001: real time    0.1003
    SETDIJ:  cpu time    0.0373: real time    0.0373
    EDDIAG:  cpu time    3.9742: real time    3.9793
  RMM-DIIS:  cpu time   12.0525: real time   12.0674
    ORTHCH:  cpu time    0.8190: real time    0.8199
       DOS:  cpu time    0.0043: real time    0.0046
    CHARGE:  cpu time    0.7509: real time    0.7517
    MIXING:  cpu time    0.0021: real time    0.0021
    --------------------------------------------
      LOOP:  cpu time   17.7403: real time   17.7626

 eigenvalue-minimisations  : 15410
 total energy-change (2. order) : 0.2763618E-01  (-0.2556642E-01)
 number of electron     127.9999666 magnetization      26.0723783
 augmentation part       67.7037649 magnetization      19.4715318

 Broyden mixing:
  rms(total) = 0.28741E+00    rms(broyden)= 0.28738E+00
  rms(prec ) = 0.31229E+00
  weight for this iteration     100.00

 eigenvalues of (default mixing * dielectric matrix)
  average eigenvalue GAMMA=   0.7397
  1.9708  0.7364  0.7364  0.5717  0.1932  0.2294

 Free energy of the ion-electron system (eV)
  ---------------------------------------------------
  alpha Z        PSCENC =       525.83532914
  Ewald energy   TEWEN  =     -9179.64166542
  -Hartree energ DENC   =     -3028.01813623
  -exchange      EXHF   =         0.00000000
  -V(xc)+E(xc)   XCENC  =        76.45913952
  PAW double counting   =     12613.13494256   -12955.94600403
  entropy T*S    EENTRO =        -0.00378803
  eigenvalues    EBANDS =       615.41316213
  atomic energy  EATOM  =     11229.46195210
  Solvation  Ediel_sol  =         0.00000000
  ---------------------------------------------------
  free energy    TOTEN  =      -103.30506826 eV

  energy without entropy =     -103.30128023  energy(sigma->0) =     -103.30317425


--------------------------------------------------------------------------------------------------------




--------------------------------------- Iteration      1(  12)  ---------------------------------------


    POTLOK:  cpu time    0.1069: real time    0.1154
    SETDIJ:  cpu time    0.0385: real time    0.0386
    EDDIAG:  cpu time    4.0117: real time    4.0167
  RMM-DIIS:  cpu time   12.2438: real time   12.2615
    ORTHCH:  cpu time    0.8187: real time    0.8196
       DOS:  cpu time    0.0044: real time    0.0046
    CHARGE:  cpu time    0.7506: real time    0.7513
    MIXING:  cpu time    0.0022: real time    0.0022
    --------------------------------------------
      LOOP:  cpu time   17.9767: real time   18.0099

 eigenvalue-minimisations  : 15450
 total energy-change (2. order) :-0.1543320E-01  (-0.2644304E-02)
 number of electron     127.9999663 magnetization      26.0396554
 augmentation part       67.7367804 magnetization      19.3555072

 Broyden mixing:
  rms(total) = 0.15734E+00    rms(broyden)= 0.15734E+00
  rms(prec ) = 0.18572E+00
  weight for this iteration     100.00

 eigenvalues of (default mixing * dielectric matrix)
  average eigenvalue GAMMA=   0.8551
  2.2305  1.0298  1.0298  0.7099  0.5653  0.1936  0.2264

 Free energy of the ion-electron system (eV)
  ---------------------------------------------------
  alpha Z        PSCENC =       525.83532914
  Ewald energy   TEWEN  =     -9179.64166542
  -Hartree energ DENC   =     -3025.73140150
  -exchange      EXHF   =         0.00000000
  -V(xc)+E(xc)   XCENC  =        76.11196111
  PAW double counting   =     12723.81621763   -13068.03306283
  entropy T*S    EENTRO =        -0.00383592
  eigenvalues    EBANDS =       614.86400423
  atomic energy  EATOM  =     11229.46195210
  Solvation  Ediel_sol  =         0.00000000
  ---------------------------------------------------
  free energy    TOTEN  =      -103.32050146 eV

  energy without entropy =     -103.31666554  energy(sigma->0) =     -103.31858350


--------------------------------------------------------------------------------------------------------




--------------------------------------- Iteration      1(  13)  ---------------------------------------


    POTLOK:  cpu time    0.0996: real time    0.0998
    SETDIJ:  cpu time    0.0376: real time    0.0376
    EDDIAG:  cpu time    4.0015: real time    4.0066
  RMM-DIIS:  cpu time   11.8635: real time   11.8796
    ORTHCH:  cpu time    0.8157: real time    0.8168
       DOS:  cpu time    0.0044: real time    0.0046
    CHARGE:  cpu time    0.7562: real time    0.7569
    MIXING:  cpu time    0.0024: real time    0.0024
    --------------------------------------------
      LOOP:  cpu time   17.5810: real time   17.6044

 eigenvalue-minimisations  : 15391
 total energy-change (2. order) : 0.5879821E-04  (-0.1894902E-02)
 number of electron     127.9999664 magnetization      26.0329137
 augmentation part       67.7421396 magnetization      19.2775952

 Broyden mixing:
  rms(total) = 0.45984E-01    rms(broyden)= 0.45982E-01
  rms(prec ) = 0.48932E-01
  weight for this iteration     100.00

 eigenvalues of (default mixing * dielectric matrix)
  average eigenvalue GAMMA=   0.8886
  2.4232  1.2631  0.8915  0.8915  0.6485  0.5709  0.1935  0.2263

 Free energy of the ion-electron system (eV)
  ---------------------------------------------------
  alpha Z        PSCENC =       525.83532914
  Ewald energy   TEWEN  =     -9179.64166542
  -Hartree energ DENC   =     -3024.02736803
  -exchange      EXHF   =         0.00000000
  -V(xc)+E(xc)   XCENC  =        75.66217164
  PAW double counting   =     12805.61140604   -13150.61259958
  entropy T*S    EENTRO =        -0.00395566
  eigenvalues    EBANDS =       614.39428711
  atomic energy  EATOM  =     11229.46195210
  Solvation  Ediel_sol  =         0.00000000
  ---------------------------------------------------
  free energy    TOTEN  =      -103.32044267 eV

  energy without entropy =     -103.31648700  energy(sigma->0) =     -103.31846484


--------------------------------------------------------------------------------------------------------




--------------------------------------- Iteration      1(  14)  ---------------------------------------


    POTLOK:  cpu time    0.0997: real time    0.0998
    SETDIJ:  cpu time    0.0374: real time    0.0374
    EDDIAG:  cpu time    3.9942: real time    3.9991
  RMM-DIIS:  cpu time   12.3970: real time   12.4161
    ORTHCH:  cpu time    0.8190: real time    0.8197
       DOS:  cpu time    0.0042: real time    0.0045
    CHARGE:  cpu time    0.7517: real time    0.7526
    MIXING:  cpu time    0.0025: real time    0.0025
    --------------------------------------------
      LOOP:  cpu time   18.1057: real time   18.1317

 eigenvalue-minimisations  : 15671
 total energy-change (2. order) :-0.3521450E-03  (-0.1918696E-03)
 number of electron     127.9999664 magnetization      26.0120828
 augmentation part       67.7369673 magnetization      19.2549299

 Broyden mixing:
  rms(total) = 0.23249E-01    rms(broyden)= 0.23249E-01
  rms(prec ) = 0.25885E-01
  weight for this iteration     100.00

 eigenvalues of (default mixing * dielectric matrix)
  average eigenvalue GAMMA=   0.9776
  2.4884  1.9064  1.0009  1.0009  0.1935  0.2263  0.7808  0.5711  0.6298

 Free energy of the ion-electron system (eV)
  ---------------------------------------------------
  alpha Z        PSCENC =       525.83532914
  Ewald energy   TEWEN  =     -9179.64166542
  -Hartree energ DENC   =     -3024.04103511
  -exchange      EXHF   =         0.00000000
  -V(xc)+E(xc)   XCENC  =        75.69077471
  PAW double counting   =     12823.08013734   -13168.19862722
  entropy T*S    EENTRO =        -0.00392951
  eigenvalues    EBANDS =       614.49626917
  atomic energy  EATOM  =     11229.46195210
  Solvation  Ediel_sol  =         0.00000000
  ---------------------------------------------------
  free energy    TOTEN  =      -103.32079481 eV

  energy without entropy =     -103.31686530  energy(sigma->0) =     -103.31883006


--------------------------------------------------------------------------------------------------------




--------------------------------------- Iteration      1(  15)  ---------------------------------------


    POTLOK:  cpu time    0.0995: real time    0.0997
    SETDIJ:  cpu time    0.0375: real time    0.0375
    EDDIAG:  cpu time    4.0043: real time    4.0101
  RMM-DIIS:  cpu time   12.3530: real time   12.3690
    ORTHCH:  cpu time    0.8186: real time    0.8195
       DOS:  cpu time    0.0044: real time    0.0046
    CHARGE:  cpu time    0.7512: real time    0.7520
    MIXING:  cpu time    0.0027: real time    0.0028
    --------------------------------------------
      LOOP:  cpu time   18.0711: real time   18.0952

 eigenvalue-minimisations  : 15574
 total energy-change (2. order) :-0.1011233E-03  (-0.4214765E-04)
 number of electron     127.9999665 magnetization      26.0160524
 augmentation part       67.7311783 magnetization      19.2619217

 Broyden mixing:
  rms(total) = 0.11224E-01    rms(broyden)= 0.11223E-01
  rms(prec ) = 0.14439E-01
  weight for this iteration     100.00

 eigenvalues of (default mixing * dielectric matrix)
  average eigenvalue GAMMA=   1.0074
  2.3617  2.3617  1.0400  1.0400  0.1935  0.2263  0.8905  0.7657  0.5613  0.6331

 Free energy of the ion-electron system (eV)
  ---------------------------------------------------
  alpha Z        PSCENC =       525.83532914
  Ewald energy   TEWEN  =     -9179.64166542
  -Hartree energ DENC   =     -3024.35486841
  -exchange      EXHF   =         0.00000000
  -V(xc)+E(xc)   XCENC  =        75.76305790
  PAW double counting   =     12821.34473944   -13166.32236619
  entropy T*S    EENTRO =        -0.00391822
  eigenvalues    EBANDS =       614.59684373
  atomic energy  EATOM  =     11229.46195210
  Solvation  Ediel_sol  =         0.00000000
  ---------------------------------------------------
  free energy    TOTEN  =      -103.32089593 eV

  energy without entropy =     -103.31697771  energy(sigma->0) =     -103.31893682


--------------------------------------------------------------------------------------------------------




--------------------------------------- Iteration      1(  16)  ---------------------------------------


    POTLOK:  cpu time    0.1036: real time    0.1069
    SETDIJ:  cpu time    0.0386: real time    0.0387
    EDDIAG:  cpu time    4.0561: real time    4.0615
  RMM-DIIS:  cpu time   11.6777: real time   11.6931
    ORTHCH:  cpu time    0.8194: real time    0.8205
       DOS:  cpu time    0.0039: real time    0.0039
    CHARGE:  cpu time    0.7588: real time    0.7594
    MIXING:  cpu time    0.0028: real time    0.0028
    --------------------------------------------
      LOOP:  cpu time   17.4609: real time   17.4869

 eigenvalue-minimisations  : 14868
 total energy-change (2. order) : 0.3312966E-04  (-0.7319622E-05)
 number of electron     127.9999664 magnetization      26.0250365
 augmentation part       67.7347376 magnetization      19.2717070

 Broyden mixing:
  rms(total) = 0.40244E-02    rms(broyden)= 0.40240E-02
  rms(prec ) = 0.44975E-02
  weight for this iteration     100.00

 eigenvalues of (default mixing * dielectric matrix)
  average eigenvalue GAMMA=   1.0250
  2.5356  2.5356  1.1266  1.1266  0.1935  0.2263  0.8274  0.8274  0.6790  0.5635
  0.6339

 Free energy of the ion-electron system (eV)
  ---------------------------------------------------
  alpha Z        PSCENC =       525.83532914
  Ewald energy   TEWEN  =     -9179.64166542
  -Hartree energ DENC   =     -3024.43125065
  -exchange      EXHF   =         0.00000000
  -V(xc)+E(xc)   XCENC  =        75.75613229
  PAW double counting   =     12815.48639730   -13160.32386697
  entropy T*S    EENTRO =        -0.00393184
  eigenvalues    EBANDS =       614.54004125
  atomic energy  EATOM  =     11229.46195210
  Solvation  Ediel_sol  =         0.00000000
  ---------------------------------------------------
  free energy    TOTEN  =      -103.32086280 eV

  energy without entropy =     -103.31693097  energy(sigma->0) =     -103.31889688


--------------------------------------------------------------------------------------------------------




--------------------------------------- Iteration      1(  17)  ---------------------------------------


    POTLOK:  cpu time    0.0997: real time    0.1000
    SETDIJ:  cpu time    0.0374: real time    0.0375
    EDDIAG:  cpu time    4.0422: real time    4.0469
  RMM-DIIS:  cpu time    7.7847: real time    7.7932
    ORTHCH:  cpu time    0.8166: real time    0.8176
       DOS:  cpu time    0.0042: real time    0.0042
    --------------------------------------------
      LOOP:  cpu time   12.7848: real time   12.7993

 eigenvalue-minimisations  :  9263
 total energy-change (2. order) :-0.5552653E-05  (-0.1200614E-05)
 number of electron     127.9999664 magnetization      26.0250365
 augmentation part       67.7347376 magnetization      19.2717070

 Free energy of the ion-electron system (eV)
  ---------------------------------------------------
  alpha Z        PSCENC =       525.83532914
  Ewald energy   TEWEN  =     -9179.64166542
  -Hartree energ DENC   =     -3024.42437045
  -exchange      EXHF   =         0.00000000
  -V(xc)+E(xc)   XCENC  =        75.76413326
  PAW double counting   =     12816.13377009   -13160.98113138
  entropy T*S    EENTRO =        -0.00392340
  eigenvalues    EBANDS =       614.53503770
  atomic energy  EATOM  =     11229.46195210
  Solvation  Ediel_sol  =         0.00000000
  ---------------------------------------------------
  free energy    TOTEN  =      -103.32086836 eV

  energy without entropy =     -103.31694496  energy(sigma->0) =     -103.31890666


--------------------------------------------------------------------------------------------------------




 average (electrostatic) potential at core
  the test charge radii are     0.9791  1.0210  1.4837
  (the norm of the test charge is              1.0000)
       1 -84.0824       2 -84.0824       3 -84.0824       4 -84.0824       5 -84.0824
       6 -84.0824       7 -84.0824       8 -84.0824       9 -42.4408      10 -42.4408
      11 -42.4408      12 -42.4408      13 -42.2530      14 -42.2530      15 -34.9533
      16 -34.9533



 E-fermi :   7.2422     XC(G=0): -12.2378     alpha+bet :-13.9808


 spin component 1

 k-point     1 :       0.0000    0.0000    0.0000
  band No.  band energies     occupation 
      1      -2.1764      1.00000
      2       1.3748      1.00000
      3       1.6067      1.00000
      4       2.0172      1.00000
      5       2.1378      1.00000
      6       2.1378      1.00000
      7       2.6561      1.00000
      8       2.6749      1.00000
      9       2.7370      1.00000
     10       2.7370      1.00000
     11       2.7672      1.00000
     12       2.7901      1.00000
     13       2.9793      1.00000
[...]
     91      13.5155      0.00000
     92      13.8568      0.00000
     93      13.8615      0.00000
     94      14.0474      0.00000
     95      14.0703      0.00000
     96      14.4545      0.00000


--------------------------------------------------------------------------------------------------------


 soft charge-density along one line, spin component           1
         0         1         2         3         4         5         6         7         8         9
 total charge-density along one line

 soft charge-density along one line, spin component           2
         0         1         2         3         4         5         6         7         8         9
 total charge-density along one line

 pseudopotential strength for first ion, spin component:           1
 -1.960  -0.000  -0.000  -0.009  -0.000  -2.580  -0.000  -0.000
 -0.000  -1.955   0.003   0.000  -0.006  -0.000  -2.576   0.003
 -0.000   0.003  -2.060  -0.000   0.008  -0.000   0.003  -2.676
 -0.009   0.000  -0.000  -1.960  -0.000  -0.009   0.000  -0.000
 -0.000  -0.006   0.008  -0.000  -2.069  -0.000  -0.005   0.008
 -2.580  -0.000  -0.000  -0.009  -0.000  -3.132  -0.000  -0.000
 -0.000  -2.576   0.003   0.000  -0.005  -0.000  -3.128   0.003
 -0.000   0.003  -2.676  -0.000   0.008  -0.000   0.003  -3.223
 -0.009   0.000  -0.000  -2.580  -0.000  -0.009   0.000  -0.000
 -0.000  -0.005   0.008  -0.000  -2.685  -0.000  -0.005   0.007
 -0.000  -0.003  -0.001   0.000   0.002  -0.000  -0.003  -0.001
 -0.000  -0.006  -0.002   0.000   0.003  -0.000  -0.005  -0.002
  0.000  -0.006   0.005   0.000   0.010   0.000  -0.006   0.005
  0.000  -0.006  -0.011   0.000   0.000   0.000  -0.006  -0.011
 -0.006   0.000  -0.000  -0.006   0.000  -0.006   0.000  -0.000
  0.000  -0.005   0.006   0.000   0.010   0.000  -0.005   0.005
  0.000  -0.005  -0.011   0.000   0.000   0.000  -0.005  -0.011
 -0.005   0.000  -0.000  -0.005   0.000  -0.005   0.000  -0.000
 pseudopotential strength for first ion, spin component:           2
 -1.535  -0.000  -0.000  -0.012  -0.000  -2.177  -0.000  -0.000
 -0.000  -1.529  -0.009   0.000   0.016  -0.000  -2.170  -0.009
 -0.000  -0.009  -1.428  -0.000  -0.000  -0.000  -0.009  -2.073
 -0.012   0.000  -0.000  -1.535  -0.000  -0.011   0.000  -0.000
 -0.000   0.016  -0.000  -0.000  -1.428  -0.000   0.016  -0.000
 -2.177  -0.000  -0.000  -0.011  -0.000  -2.748  -0.000  -0.000
 -0.000  -2.170  -0.009   0.000   0.016  -0.000  -2.742  -0.009
 -0.000  -0.009  -2.073  -0.000  -0.000  -0.000  -0.009  -2.648
 -0.011   0.000  -0.000  -2.177  -0.000  -0.011   0.000  -0.000
 -0.000   0.016  -0.000  -0.000  -2.073  -0.000   0.015  -0.000
 -0.000   0.003  -0.000   0.000   0.000  -0.000   0.003  -0.000
 -0.000   0.004  -0.000   0.000   0.000  -0.000   0.005  -0.000
  0.000  -0.011   0.006   0.000   0.011   0.000  -0.010   0.006
  0.000  -0.011  -0.012   0.000   0.000   0.000  -0.010  -0.012
 -0.010   0.000  -0.000  -0.010   0.000  -0.010   0.000  -0.000
  0.000  -0.012   0.006   0.000   0.011   0.000  -0.011   0.006
  0.000  -0.012  -0.013   0.000   0.000   0.000  -0.011  -0.012
 -0.012   0.000  -0.000  -0.012   0.000  -0.011   0.000  -0.000
 total augmentation occupancy for first ion, spin component:           1
  2.192  -0.000   0.000   0.007  -0.000  -0.632  -0.000   0.000  -0.031   0.000   0.000  -0.000   0.000  -0.000   0.030   0.000
  0.000   2.195  -0.015   0.000   0.026   0.000  -0.634   0.013  -0.000  -0.023  -0.074   0.033   0.025   0.025   0.000  -0.013
  0.000  -0.015   2.766   0.000  -0.001   0.000   0.013  -1.086   0.000   0.002  -0.007   0.001   0.028  -0.061   0.000   0.003
  0.007   0.000  -0.000   2.192   0.000  -0.031  -0.000  -0.000  -0.632   0.000   0.000  -0.000   0.000   0.000   0.030  -0.000
 -0.000   0.026  -0.001  -0.000   2.767  -0.000  -0.023   0.002  -0.000  -1.088   0.012  -0.002   0.054   0.003  -0.000   0.005
 -0.632   0.000  -0.000  -0.031   0.000   0.877   0.000   0.000   0.048  -0.000   0.000   0.000  -0.000  -0.000  -0.003  -0.000
 -0.000  -0.634   0.013  -0.000  -0.023  -0.000   0.876  -0.005   0.000   0.009   0.046  -0.020   0.001   0.001  -0.000   0.002
  0.000   0.013  -1.086   0.000   0.002  -0.000  -0.005   1.128   0.000   0.001   0.007  -0.001  -0.028   0.058  -0.000   0.003
 -0.031  -0.000   0.000  -0.632  -0.000   0.048   0.000   0.000   0.877   0.000  -0.000   0.000  -0.000   0.000  -0.003  -0.000
 -0.000  -0.023   0.002   0.000  -1.088   0.000   0.009   0.001  -0.000   1.127  -0.012   0.002  -0.050  -0.001   0.000   0.005
 -0.000  -0.074  -0.007   0.000   0.012   0.000   0.046   0.007  -0.000  -0.012   2.093  -0.269   0.049   0.049   0.000  -0.006
  0.000   0.033   0.001   0.000  -0.002  -0.000  -0.020  -0.001  -0.000   0.002  -0.269   0.044   0.002   0.002   0.000  -0.001
  0.000   0.025   0.028   0.000   0.054   0.000   0.001  -0.028   0.000  -0.050   0.049   0.002   0.255  -0.000   0.000  -0.026
  0.000   0.025  -0.061  -0.000   0.003   0.000   0.001   0.058   0.000  -0.001   0.049   0.002  -0.000   0.255  -0.000  -0.002
  0.030   0.000   0.000   0.030  -0.000  -0.003  -0.000  -0.000  -0.003  -0.000   0.000   0.000   0.000  -0.000   0.253  -0.000
  0.000  -0.013   0.003  -0.000   0.005  -0.000   0.002   0.003  -0.000   0.005  -0.006  -0.001  -0.026  -0.002  -0.000   0.003
 -0.000  -0.013  -0.006   0.000   0.000  -0.000   0.002  -0.006   0.000  -0.000  -0.006  -0.001  -0.002  -0.026   0.000   0.000
 -0.013  -0.000   0.000  -0.013   0.000   0.002   0.000   0.000   0.002   0.000   0.000   0.000  -0.000   0.000  -0.026   0.000
 total augmentation occupancy for first ion, spin component:           2
  0.841   0.000  -0.000  -0.105  -0.000  -0.531  -0.000   0.000   0.084  -0.000   0.000  -0.000   0.000   0.000  -0.043  -0.000
  0.000   0.806  -0.054   0.000   0.094  -0.000  -0.500   0.029  -0.000  -0.050   0.022  -0.000  -0.048  -0.048   0.000  -0.000
  0.000  -0.054   1.178   0.000  -0.031  -0.000   0.029  -0.565  -0.000   0.017   0.006   0.000  -0.014   0.028   0.000   0.002
 -0.105   0.000   0.000   0.841  -0.000   0.084  -0.000   0.000  -0.531   0.000   0.000  -0.000  -0.000  -0.000  -0.043   0.000
 -0.000   0.094  -0.031   0.000   1.214   0.000  -0.049   0.017   0.000  -0.584  -0.010  -0.000  -0.024   0.001   0.000   0.003
 -0.531  -0.000  -0.000   0.084  -0.000   0.278   0.000   0.000  -0.064  -0.000  -0.000   0.000   0.000  -0.000   0.028   0.000
  0.000  -0.500   0.029   0.000  -0.049  -0.000   0.253  -0.013   0.000   0.022  -0.009   0.003   0.031   0.031   0.000  -0.002
 -0.000   0.029  -0.565  -0.000   0.017  -0.000  -0.013   0.164   0.000  -0.007  -0.004   0.000   0.014  -0.026   0.000  -0.002
  0.084   0.000  -0.000  -0.531  -0.000  -0.064   0.000  -0.000   0.278  -0.000   0.000   0.000   0.000   0.000   0.028  -0.000
  0.000  -0.050   0.017  -0.000  -0.584   0.000   0.022  -0.007   0.000   0.173   0.007  -0.000   0.022  -0.001  -0.000  -0.003
 -0.000   0.022   0.006   0.000  -0.010   0.000  -0.009  -0.004  -0.000   0.007  -0.127   0.022  -0.006  -0.006  -0.000  -0.001
  0.000  -0.000   0.000   0.000  -0.000   0.000   0.003   0.000  -0.000  -0.000   0.022  -0.004  -0.001  -0.001   0.000   0.000
 -0.000  -0.048  -0.014  -0.000  -0.024   0.000   0.031   0.014   0.000   0.022  -0.006  -0.001  -0.008  -0.003   0.000   0.000
  0.000  -0.048   0.028  -0.000   0.001   0.000   0.031  -0.026   0.000  -0.001  -0.006  -0.001  -0.003  -0.008   0.000   0.001
 -0.043  -0.000   0.000  -0.043   0.000   0.028  -0.000   0.000   0.028  -0.000   0.000  -0.000  -0.000  -0.000  -0.007  -0.000
 -0.000  -0.000   0.002  -0.000   0.003   0.000  -0.002  -0.002  -0.000  -0.003  -0.001   0.000   0.000   0.001   0.000   0.000
 -0.000  -0.000  -0.004   0.000  -0.000   0.000  -0.002   0.003   0.000   0.000  -0.001   0.000   0.001   0.000  -0.000  -0.000
 -0.000   0.000   0.000  -0.000   0.000  -0.002   0.000   0.000  -0.002   0.000  -0.000  -0.000  -0.000  -0.000   0.000   0.000


------------------------ aborting loop because EDIFF is reached ----------------------------------------





 total charge     

# of ion       s       p       d       tot
------------------------------------------
    1        0.474   0.421   8.359   9.254
    2        0.474   0.421   8.359   9.254
    3        0.473   0.423   8.356   9.252
    4        0.473   0.423   8.356   9.252
    5        0.473   0.423   8.356   9.252
    6        0.473   0.423   8.356   9.252
    7        0.474   0.421   8.359   9.254
    8        0.474   0.421   8.359   9.254
    9        0.319   0.301   4.938   5.558
   10        0.319   0.301   4.938   5.558
   11        0.325   0.314   4.936   5.575
   12        0.325   0.314   4.936   5.575
   13        0.348   0.347   4.978   5.673
   14        0.348   0.347   4.978   5.673
   15        1.236   1.659   0.289   3.184
   16        1.236   1.659   0.289   3.184
--------------------------------------------------
tot          8.242   8.618  97.146 114.005



 magnetization (x)

# of ion       s       p       d       tot
------------------------------------------
    1       -0.024  -0.014   0.586   0.548
    2       -0.024  -0.014   0.586   0.548
    3       -0.023  -0.015   0.572   0.534
    4       -0.023  -0.015   0.572   0.534
    5       -0.023  -0.015   0.572   0.534
    6       -0.023  -0.015   0.572   0.534
    7       -0.024  -0.014   0.586   0.548
    8       -0.024  -0.014   0.586   0.548
    9        0.022   0.018   3.574   3.614
   10        0.022   0.018   3.574   3.614
   11        0.024   0.013   3.570   3.607
   12        0.024   0.013   3.570   3.607
   13        0.019   0.001   3.354   3.373
   14        0.019   0.001   3.354   3.373
   15       -0.006  -0.062  -0.011  -0.079
   16       -0.006  -0.062  -0.011  -0.079
--------------------------------------------------
tot         -0.072  -0.178  25.608  25.357

    CHARGE:  cpu time    0.7721: real time    0.7727
    FORLOC:  cpu time    0.0072: real time    0.0072
    FORNL :  cpu time    5.4342: real time    5.4397
    STRESS:  cpu time   16.3993: real time   16.4224
    FORCOR:  cpu time    0.1015: real time    0.1016
    FORHAR:  cpu time    0.0161: real time    0.0161
    MIXING:  cpu time    0.0030: real time    0.0030
    OFIELD:  cpu time    0.0000: real time    0.0000

  FORCE on cell =-STRESS in cart. coord.  units (eV):
  Direction    XX          YY          ZZ          XY          YZ          ZX
  --------------------------------------------------------------------------------------
  Alpha Z   525.83533   525.83533   525.83533
  Ewald   -2827.35896 -3176.15564 -3176.15564     0.00000     0.00000    -0.00000
  Hartree  1230.94844   896.71771   896.71771    -0.00000    -0.00000    -0.00000
  E(xc)    -670.43152  -670.36770  -670.36770    -0.00000    -0.00000     0.00000
  Local    -753.01800   -70.40030   -70.40030     0.00000     0.00000     0.00000
  n-local  -148.40390  -150.08615  -145.80601     0.57833    -0.24883    -0.86536
  augment  1580.29311  1579.78101  1579.78101    -0.00000     0.00000    -0.00000
  Kinetic  1061.35089  1050.15820  1070.46873     0.88301    -0.54113    -1.29014
  Fock        0.00000     0.00000     0.00000     0.00000     0.00000     0.00000
  -------------------------------------------------------------------------------------
  Total      -0.78461    -2.22221    -2.22221    -0.00000    -0.00000     0.00000
  in kB      -5.87444   -16.63788   -16.63788    -0.00000    -0.00000     0.00000
  external pressure =      -13.05 kB  Pullay stress =        0.00 kB


 VOLUME and BASIS-vectors are now :
 -----------------------------------------------------------------------------
  energy-cutoff  :      550.00
  volume of cell :      213.99
      direct lattice vectors                 reciprocal lattice vectors
     5.981349759  0.000000000  0.000000000     0.167186344  0.000000000  0.000000000
     0.000000000  5.981349759  0.000000000     0.000000000  0.167186344  0.000000000
     0.000000000  0.000000000  5.981349759     0.000000000  0.000000000  0.167186344

  length of vectors
     5.981349759  5.981349759  5.981349759     0.167186344  0.167186344  0.167186344


 FORCES acting on ions
    electron-ion (+dipol)            ewald-force                    non-local-force                 convergence-correction
 -----------------------------------------------------------------------------------------------
   0.584E-12 0.154E+03 0.154E+03   -.107E-13 -.151E+03 -.151E+03   -.139E-16 -.249E+01 -.249E+01   -.248E-14 -.152E-02 -.152E-02
   0.171E-11 0.154E+03 0.154E+03   0.355E-14 -.151E+03 -.151E+03   -.139E-16 -.249E+01 -.249E+01   0.153E-12 -.152E-02 -.152E-02
   0.573E-12 -.154E+03 0.154E+03   0.213E-13 0.151E+03 -.151E+03   -.108E-18 0.249E+01 -.249E+01   -.112E-13 0.152E-02 -.152E-02
   0.169E-11 -.154E+03 0.154E+03   0.355E-13 0.151E+03 -.151E+03   -.108E-18 0.249E+01 -.249E+01   0.161E-12 0.152E-02 -.152E-02
   0.565E-12 0.154E+03 -.154E+03   0.355E-14 -.151E+03 0.151E+03   -.173E-17 -.249E+01 0.249E+01   -.459E-13 -.152E-02 0.152E-02
   0.170E-11 0.154E+03 -.154E+03   0.178E-13 -.151E+03 0.151E+03   -.173E-17 -.249E+01 0.249E+01   0.153E-12 -.152E-02 0.152E-02
   0.559E-12 -.154E+03 -.154E+03   0.711E-14 0.151E+03 0.151E+03   0.347E-17 0.249E+01 0.249E+01   -.595E-13 0.152E-02 0.152E-02
   0.172E-11 -.154E+03 -.154E+03   0.213E-13 0.151E+03 0.151E+03   0.347E-17 0.249E+01 0.249E+01   0.150E-12 0.152E-02 0.152E-02
   0.240E-12 0.148E-11 0.120E-11   -.102E-12 0.182E-13 -.865E-15   0.000E+00 0.000E+00 -.106E-21   -.683E-13 -.769E-13 0.637E-13
   -.288E-13 0.215E-12 -.103E-12   -.973E-13 0.181E-13 -.782E-15   0.000E+00 0.265E-22 0.529E-22   0.416E-13 -.546E-13 0.727E-13
   -.339E-13 -.375E-13 0.232E-12   -.105E-12 -.511E-13 0.298E-13   0.000E+00 0.000E+00 0.000E+00   0.152E-13 0.389E-13 -.545E-13
   0.236E-12 -.365E-13 0.264E-11   -.948E-13 -.512E-13 0.441E-13   0.000E+00 -.106E-21 0.000E+00   -.390E-13 0.360E-13 -.921E-13
   0.230E-12 0.325E-12 0.118E-11   0.112E-12 -.123E-12 -.416E-13   0.265E-22 -.265E-22 -.529E-22   -.623E-13 -.416E-13 -.107E-12
   -.397E-13 0.211E-12 0.231E-12   0.116E-12 -.123E-12 -.131E-13   0.265E-22 0.000E+00 0.000E+00   0.318E-13 -.249E-13 -.811E-13
   -.140E-13 -.107E-13 -.347E-13   0.344E-13 0.961E-14 0.165E-14   0.000E+00 0.000E+00 0.000E+00   0.136E-13 0.165E-13 0.229E-13
   0.101E-13 0.346E-13 0.517E-12   0.359E-13 0.960E-14 0.159E-13   0.000E+00 0.000E+00 0.000E+00   -.167E-13 0.175E-13 0.263E-13
 -----------------------------------------------------------------------------------------------
   0.971E-11 0.137E-10 0.183E-10   -.945E-15 -.374E-13 0.177E-12   -.245E-16 -.133E-14 0.888E-15   0.415E-12 -.597E-13 -.675E-12


 POSITION                                       TOTAL-FORCE (eV/Angst)
 -----------------------------------------------------------------------------------
      1.49534      1.58566      1.58566         0.000000     -0.003530     -0.003530
      4.48601      1.58566      1.58566        -0.000000     -0.003530     -0.003530
      1.49534      4.39569      1.58566         0.000000      0.003530     -0.003530
      4.48601      4.39569      1.58566        -0.000000      0.003530     -0.003530
      1.49534      1.58566      4.39569         0.000000     -0.003530      0.003530
      4.48601      1.58566      4.39569        -0.000000     -0.003530      0.003530
      1.49534      4.39569      4.39569         0.000000      0.003530      0.003530
      4.48601      4.39569      4.39569        -0.000000      0.003530      0.003530
      2.99067      2.99067      0.00000         0.000000     -0.000000     -0.000000
      0.00000      2.99067      0.00000         0.000000     -0.000000     -0.000000
      0.00000      0.00000      2.99067         0.000000     -0.000000     -0.000000
      2.99067      0.00000      2.99067         0.000000     -0.000000     -0.000000
      2.99067      2.99067      2.99067         0.000000     -0.000000     -0.000000
      0.00000      2.99067      2.99067         0.000000     -0.000000     -0.000000
      0.00000      0.00000      0.00000         0.000000     -0.000000     -0.000000
      2.99067      0.00000      0.00000         0.000000     -0.000000     -0.000000
 -----------------------------------------------------------------------------------
    total drift:                                0.000000      0.000000      0.000000


--------------------------------------------------------------------------------------------------------



  FREE ENERGIE OF THE ION-ELECTRON SYSTEM (eV)
  ---------------------------------------------------
  free  energy   TOTEN  =      -103.32086836 eV

  energy  without entropy=     -103.31694496  energy(sigma->0) =     -103.31890666



--------------------------------------------------------------------------------------------------------


    POTLOK:  cpu time    0.1376: real time    0.1377


--------------------------------------------------------------------------------------------------------




--------------------------------------------------------------------------------------------------------


  
 reached required accuracy - stopping structural energy minimisation
     LOOP+:  cpu time  382.8577: real time  383.4778
    4ORBIT:  cpu time    0.0000: real time    0.0000



 total charge     

# of ion       s       p       d       tot
------------------------------------------
    1        0.474   0.421   8.359   9.254
    2        0.474   0.421   8.359   9.254
    3        0.473   0.423   8.356   9.252
    4        0.473   0.423   8.356   9.252
    5        0.473   0.423   8.356   9.252
    6        0.473   0.423   8.356   9.252
    7        0.474   0.421   8.359   9.254
    8        0.474   0.421   8.359   9.254
    9        0.319   0.301   4.938   5.558
   10        0.319   0.301   4.938   5.558
   11        0.325   0.314   4.936   5.575
   12        0.325   0.314   4.936   5.575
   13        0.348   0.347   4.978   5.673
   14        0.348   0.347   4.978   5.673
   15        1.236   1.659   0.289   3.184
   16        1.236   1.659   0.289   3.184
--------------------------------------------------
tot          8.242   8.618  97.146 114.005



 magnetization (x)

# of ion       s       p       d       tot
------------------------------------------
    1       -0.024  -0.014   0.586   0.548
    2       -0.024  -0.014   0.586   0.548
    3       -0.023  -0.015   0.572   0.534
    4       -0.023  -0.015   0.572   0.534
    5       -0.023  -0.015   0.572   0.534
    6       -0.023  -0.015   0.572   0.534
    7       -0.024  -0.014   0.586   0.548
    8       -0.024  -0.014   0.586   0.548
    9        0.022   0.018   3.574   3.614
   10        0.022   0.018   3.574   3.614
   11        0.024   0.013   3.570   3.607
   12        0.024   0.013   3.570   3.607
   13        0.019   0.001   3.354   3.373
   14        0.019   0.001   3.354   3.373
   15       -0.006  -0.062  -0.011  -0.079
   16       -0.006  -0.062  -0.011  -0.079
--------------------------------------------------
tot         -0.072  -0.178  25.608  25.357


 total amount of memory used by VASP MPI-rank0   112593. kBytes
=======================================================================

   base      :      30000. kBytes
   nonlr-proj:       6793. kBytes
   fftplans  :       1269. kBytes
   grid      :       6573. kBytes
   one-center:        497. kBytes
   wavefun   :      67461. kBytes

  
  
 General timing and accounting informations for this job:
 ========================================================
  
                  Total CPU time used (sec):      394.724
                            User time (sec):      372.933
                          System time (sec):       21.791
                         Elapsed time (sec):      396.226
  
                   Maximum memory used (kb):      144640.
                   Average memory used (kb):           0.
  
                          Minor page faults:      9691578
                          Major page faults:           18
                 Voluntary context switches:         1888
