 vasp.5.4.4.18Apr17-6-g9f103f2a35 (build May 21 2018 20:56:50) complex           
 executed on             LinuxGNU date 2021.10.15  15:43:19
 running on   12 total cores
 distrk:  each k-point on   12 cores,    1 groups
 distr:  one band on NCORES_PER_BAND=   1 cores,   12 groups


--------------------------------------------------------------------------------------------------------


 INCAR:
 POTCAR:    PAW_PBE Ni 02Aug2007                  
 POTCAR:    PAW_PBE Mn 06Sep2000                  
 POTCAR:    PAW_PBE In 08Apr2002                  

 ----------------------------------------------------------------------------- 
|                                                                             |
|           W    W    AA    RRRRR   N    N  II  N    N   GGGG   !!!           |
|           W    W   A  A   R    R  NN   N  II  NN   N  G    G  !!!           |
|           W    W  A    A  R    R  N N  N  II  N N  N  G       !!!           |
|           W WW W  AAAAAA  RRRRR   N  N N  II  N  N N  G  GGG   !            |
|           WW  WW  A    A  R   R   N   NN  II  N   NN  G    G                |
|           W    W  A    A  R    R  N    N  II  N    N   GGGG   !!!           |
|                                                                             |
|      For optimal performance we recommend to set                            |
|        NCORE= 4 - approx SQRT( number of cores)                             |
|      NCORE specifies how many cores store one orbital (NPAR=cpu/NCORE).     |
|      This setting can  greatly improve the performance of VASP for DFT.     |
|      The default,   NCORE=1            might be grossly inefficient         |
|      on modern multi-core architectures or massively parallel machines.     |
|      Do your own testing !!!!                                               |
|      Unfortunately you need to use the default for GW and RPA calculations. |
|      (for HF NCORE is supported but not extensively tested yet)             |
|                                                                             |
 ----------------------------------------------------------------------------- 

 POTCAR:    PAW_PBE Ni 02Aug2007                  
   VRHFIN =Ni:                                                                  
   LEXCH  = PE                                                                  
   EATOM  =  1077.6739 eV,   79.2068 Ry                                         
                                                                                
   TITEL  = PAW_PBE Ni 02Aug2007                                                
   LULTRA =        F    use ultrasoft PP ?                                      
   IUNSCR =        1    unscreen: 0-lin 1-nonlin 2-no                           
   RPACOR =    2.000    partial core radius                                     
   POMASS =   58.690; ZVAL   =   10.000    mass and valenz                      
   RCORE  =    2.300    outmost cutoff radius                                   
   RWIGS  =    2.430; RWIGS  =    1.286    wigner-seitz radius (au A)           
   ENMAX  =  269.532; ENMIN  =  202.149 eV                                      
   RCLOC  =    1.201    cutoff for local pot                                    
   LCOR   =        T    correct aug charges                                     
   LPAW   =        T    paw PP                                                  
   EAUG   =  544.565                                                            
   DEXC   =    0.000                                                            
   RMAX   =    2.357    core radius for proj-oper                               
   RAUG   =    1.300    factor for augmentation sphere                          
   RDEP   =    2.390    radius for radial grids                                 
   RDEPT  =    1.838    core radius for aug-charge                              
                                                                                
   Atomic configuration                                                         
    9 entries                                                                   
     n  l   j            E        occ.                                          
     1  0  0.50     -8206.4253   2.0000                                         
     2  0  0.50      -976.1748   2.0000                                         
     2  1  1.50      -839.0571   6.0000                                         
     3  0  0.50      -105.9991   2.0000                                         
     3  1  1.50       -66.4603   6.0000                                         
     3  2  2.50        -4.6458   9.0000                                         
     4  0  0.50        -4.4926   1.0000                                         
     4  1  1.50        -4.0817   0.0000                                         
     4  3  2.50        -1.3606   0.0000                                         
   Description                                                                  
     l       E           TYP  RCUT    TYP  RCUT                                 
     2     -4.6457903     23  2.300                                             
     2     -6.0063729     23  2.300                                             
     0     -4.4925590     23  2.300                                             
     0      5.0102601     23  2.300                                             
     1     -2.7211652     23  2.300                                             
     1     16.5183231     23  2.300                                             
  local pseudopotential read in
  partial core-charges read in
  partial kinetic energy density read in
  atomic valenz-charges read in
  non local Contribution for L=           2  read in
    real space projection operators read in
  non local Contribution for L=           2  read in
    real space projection operators read in
  non local Contribution for L=           0  read in
    real space projection operators read in
  non local Contribution for L=           0  read in
    real space projection operators read in
  non local Contribution for L=           1  read in
    real space projection operators read in
  non local Contribution for L=           1  read in
    real space projection operators read in
    PAW grid and wavefunctions read in

   number of l-projection  operators is LMAX  =           6
   number of lm-projection operators is LMMAX =          18

 POTCAR:    PAW_PBE Mn 06Sep2000                  
   VRHFIN =Mn: d6 s1                                                            
   LEXCH  = PE                                                                  
   EATOM  =   416.7541 eV,   30.6306 Ry                                         
                                                                                
   TITEL  = PAW_PBE Mn 06Sep2000                                                
   LULTRA =        F    use ultrasoft PP ?                                      
   IUNSCR =        1    unscreen: 0-lin 1-nonlin 2-no                           
   RPACOR =    2.000    partial core radius                                     
   POMASS =   54.938; ZVAL   =    7.000    mass and valenz                      
   RCORE  =    2.300    outmost cutoff radius                                   
   RWIGS  =    2.500; RWIGS  =    1.323    wigner-seitz radius (au A)           
   ENMAX  =  269.864; ENMIN  =  202.398 eV                                      
   RCLOC  =    1.725    cutoff for local pot                                    
   LCOR   =        T    correct aug charges                                     
   LPAW   =        T    paw PP                                                  
   EAUG   =  500.711                                                            
   DEXC   =    0.000                                                            
   RMAX   =    2.343    core radius for proj-oper                               
   RAUG   =    1.300    factor for augmentation sphere                          
   RDEP   =    2.338    radius for radial grids                                 
   RDEPT  =    1.911    core radius for aug-charge                              
                                                                                
   Atomic configuration                                                         
    9 entries                                                                   
     n  l   j            E        occ.                                          
     1  0  0.50     -6424.8288   2.0000                                         
     2  0  0.50      -739.1154   2.0000                                         
     2  1  1.50      -625.3949   6.0000                                         
     3  0  0.50       -81.6100   2.0000                                         
     3  1  1.50       -50.4667   6.0000                                         
     3  2  2.50        -3.3745   6.0000                                         
     4  0  0.50        -4.1331   1.0000                                         
     4  1  0.50        -4.0817   0.0000                                         
     4  3  2.50        -1.3606   0.0000                                         
   Description                                                                  
     l       E           TYP  RCUT    TYP  RCUT                                 
     2     -3.3744664     23  2.300                                             
     2     -4.7350490     23  2.300                                             
     0     -4.1331408     23  2.300                                             
     0      7.6656614     23  2.300                                             
     1     -2.7211652     23  2.300                                             
     1     20.4087390     23  2.300                                             
  local pseudopotential read in
  partial core-charges read in
  partial kinetic energy density read in
  atomic valenz-charges read in
  non local Contribution for L=           2  read in
    real space projection operators read in
  non local Contribution for L=           2  read in
    real space projection operators read in
  non local Contribution for L=           0  read in
    real space projection operators read in
  non local Contribution for L=           0  read in
    real space projection operators read in
  non local Contribution for L=           1  read in
    real space projection operators read in
  non local Contribution for L=           1  read in
    real space projection operators read in
    PAW grid and wavefunctions read in

   number of l-projection  operators is LMAX  =           6
   number of lm-projection operators is LMMAX =          18

 POTCAR:    PAW_PBE In 08Apr2002                  
   VRHFIN =In: s2p1                                                             
   LEXCH  = PE                                                                  
   EATOM  =    53.7908 eV,    3.9535 Ry                                         
                                                                                
   TITEL  = PAW_PBE In 08Apr2002                                                
   LULTRA =        F    use ultrasoft PP ?                                      
   IUNSCR =        1    unscreen: 0-lin 1-nonlin 2-no                           
   RPACOR =    2.400    partial core radius                                     
   POMASS =  114.820; ZVAL   =    3.000    mass and valenz                      
   RCORE  =    3.100    outmost cutoff radius                                   
   RWIGS  =    3.170; RWIGS  =    1.677    wigner-seitz radius (au A)           
   ENMAX  =   95.934; ENMIN  =   71.951 eV                                      
   ICORE  =        3    local potential                                         
   LCOR   =        T    correct aug charges                                     
   LPAW   =        T    paw PP                                                  
   EAUG   =  237.125                                                            
   DEXC   =    0.000                                                            
   RMAX   =    3.168    core radius for proj-oper                               
   RAUG   =    1.300    factor for augmentation sphere                          
   RDEP   =    3.187    radius for radial grids                                 
   RDEPT  =    2.711    core radius for aug-charge                              
                                                                                
   Atomic configuration                                                         
   13 entries                                                                   
     n  l   j            E        occ.                                          
     1  0  0.50    -27747.9169   2.0000                                         
     2  0  0.50     -4154.4438   2.0000                                         
     2  1  1.50     -3728.4305   6.0000                                         
     3  0  0.50      -788.3680   2.0000                                         
     3  1  1.50      -648.9215   6.0000                                         
     3  2  2.50      -432.5893  10.0000                                         
     4  0  0.50      -119.6363   2.0000                                         
     4  1  1.50       -78.1086   6.0000                                         
     4  2  2.50       -18.6227  10.0000                                         
     5  0  0.50        -8.2107   2.0000                                         
     5  1  0.50        -2.5185   1.0000                                         
     5  2  2.50        -1.3606   0.0000                                         
     4  3  2.50        -2.7212   0.0000                                         
   Description                                                                  
     l       E           TYP  RCUT    TYP  RCUT                                 
     0     -8.2107306     23  3.100                                             
     0     -6.1485975     23  3.100                                             
     1     -2.5184867     23  3.100                                             
     1      3.2427302     23  3.100                                             
     2     -1.3605826     23  3.100                                             
     3     -1.3605826     23  3.100                                             
  local pseudopotential read in
  partial core-charges read in
  partial kinetic energy density read in
  atomic valenz-charges read in
  non local Contribution for L=           0  read in
    real space projection operators read in
  non local Contribution for L=           0  read in
    real space projection operators read in
  non local Contribution for L=           1  read in
    real space projection operators read in
  non local Contribution for L=           1  read in
    real space projection operators read in
  non local Contribution for L=           2  read in
    real space projection operators read in
    PAW grid and wavefunctions read in

   number of l-projection  operators is LMAX  =           5
   number of lm-projection operators is LMMAX =          13

 Optimization of the real space projectors (new method)

 maximal supplied QI-value         = 16.25
 optimisation between [QCUT,QGAM] = [ 11.86, 23.89] = [ 39.41,159.82] Ry 
 Optimized for a Real-space Cutoff    1.33 Angstroem

   l    n(q)    QCUT    max X(q) W(low)/X(q) W(high)/X(q)  e(spline) 
   2      9    11.864    60.317    0.21E-03    0.51E-03    0.25E-06
   2      9    11.864    55.921    0.21E-03    0.51E-03    0.26E-06
   0      9    11.864    51.690    0.22E-03    0.30E-04    0.17E-06
   0      9    11.864    30.015    0.20E-03    0.28E-04    0.15E-06
   1      9    11.864    18.849    0.76E-04    0.33E-03    0.17E-06
   1      9    11.864    14.624    0.60E-04    0.28E-03    0.15E-06
 Optimization of the real space projectors (new method)

 maximal supplied QI-value         = 16.25
 optimisation between [QCUT,QGAM] = [ 11.86, 23.89] = [ 39.41,159.82] Ry 
 Optimized for a Real-space Cutoff    1.36 Angstroem

   l    n(q)    QCUT    max X(q) W(low)/X(q) W(high)/X(q)  e(spline) 
   2      9    11.864   110.144    0.49E-03    0.50E-03    0.21E-06
   2      9    11.864   103.200    0.49E-03    0.51E-03    0.22E-06
   0     10    11.864    68.437    0.12E-03    0.41E-04    0.21E-06
   0     10    11.864    33.971    0.11E-03    0.36E-04    0.19E-06
   1      9    11.864    17.065    0.24E-03    0.26E-03    0.93E-07
   1      9    11.864    12.540    0.19E-03    0.20E-03    0.80E-07
 Optimization of the real space projectors (new method)

 maximal supplied QI-value         = 12.09
 optimisation between [QCUT,QGAM] = [ 11.97, 23.95] = [ 40.14,160.58] Ry 
 Optimized for a Real-space Cutoff    1.63 Angstroem

   l    n(q)    QCUT    max X(q) W(low)/X(q) W(high)/X(q)  e(spline) 
   0     12    11.973   106.980    0.33E-03    0.16E-03    0.25E-05
   0     12    11.973    81.086    0.37E-03    0.18E-03    0.28E-05
   1     11    11.973    53.097    0.22E-03    0.42E-03    0.40E-05
   1     11    11.973    32.621    0.20E-03    0.40E-03    0.37E-05
   2     11    11.973     8.820    0.30E-03    0.17E-03    0.41E-06
  PAW_PBE Ni 02Aug2007                  :
 energy of atom  1       EATOM=-1077.6739
 kinetic energy error for atom=    0.0027 (will be added to EATOM!!)
  PAW_PBE Mn 06Sep2000                  :
 energy of atom  2       EATOM= -416.7541
 kinetic energy error for atom=    0.0022 (will be added to EATOM!!)
  PAW_PBE In 08Apr2002                  :
 energy of atom  3       EATOM=  -53.7908
 kinetic energy error for atom=    0.0000 (will be added to EATOM!!)


 POSCAR: Ni2MnIn                                 
  positions in direct lattice
  velocities in cartesian coordinates
 exchange correlation table for  LEXCH =        8
   RHO(1)=    0.500       N(1)  =     2000
   RHO(2)=  100.500       N(2)  =     4000



--------------------------------------------------------------------------------------------------------


 ion  position               nearest neighbor table
   1  0.253  0.253  0.271-  13 2.49  12 2.51  14 2.51  11 2.53  16 2.63  10 2.65   9 2.65  15 2.67
                             5 2.73   3 2.94   2 2.94   3 3.02   2 3.02
   2  0.747  0.253  0.271-  13 2.49  12 2.51  14 2.51  11 2.53  16 2.63  10 2.65   9 2.65  15 2.67
                             6 2.73   4 2.94   1 2.94   1 3.02   4 3.02
   3  0.253  0.747  0.271-  13 2.49  12 2.51  14 2.51  11 2.53  16 2.63  10 2.65   9 2.65  15 2.67
                             7 2.73   4 2.94   1 2.94   1 3.02   4 3.02
   4  0.747  0.747  0.271-  13 2.49  12 2.51  14 2.51  11 2.53  16 2.63  10 2.65   9 2.65  15 2.67
                             8 2.73   3 2.94   2 2.94   2 3.02   3 3.02
   5  0.253  0.253  0.729-  13 2.49  12 2.51  14 2.51  11 2.53  16 2.63  10 2.65   9 2.65  15 2.67
                             1 2.73   6 2.94   7 2.94   7 3.02   6 3.02
   6  0.747  0.253  0.729-  13 2.49  12 2.51  14 2.51  11 2.53  16 2.63  10 2.65   9 2.65  15 2.67
                             2 2.73   5 2.94   8 2.94   5 3.02   8 3.02
   7  0.253  0.747  0.729-  13 2.49  12 2.51  14 2.51  11 2.53  16 2.63  10 2.65   9 2.65  15 2.67
                             3 2.73   5 2.94   8 2.94   5 3.02   8 3.02
   8  0.747  0.747  0.729-  13 2.49  12 2.51  14 2.51  11 2.53  16 2.63  10 2.65   9 2.65  15 2.67
                             4 2.73   6 2.94   7 2.94   6 3.02   7 3.02
   9  0.500  0.000  0.000-   1 2.65   2 2.65   3 2.65   4 2.65   5 2.65   6 2.65   7 2.65   8 2.65
                            12 2.98  15 2.98  16 2.98  12 2.98  16 2.98  15 2.98
  10  0.000  0.500  0.000-   1 2.65   2 2.65   3 2.65   4 2.65   5 2.65   6 2.65   7 2.65   8 2.65
                            14 2.98  15 2.98  16 2.98  14 2.98  15 2.98  16 2.98
  11  0.000  0.000  0.500-   1 2.53   2 2.53   3 2.53   4 2.53   5 2.53   6 2.53   7 2.53   8 2.53
                            12 2.98  14 2.98  15 2.98  15 2.98  14 2.98  12 2.98
  12  0.500  0.000  0.500-   1 2.51   2 2.51   3 2.51   4 2.51   5 2.51   6 2.51   7 2.51   8 2.51
                             9 2.98  11 2.98  13 2.98   9 2.98  13 2.98  11 2.98
  13  0.500  0.500  0.500-   1 2.49   2 2.49   3 2.49   4 2.49   5 2.49   6 2.49   7 2.49   8 2.49
                            12 2.98  14 2.98  16 2.98  16 2.98  12 2.98  14 2.98
  14  0.000  0.500  0.500-   1 2.51   2 2.51   3 2.51   4 2.51   5 2.51   6 2.51   7 2.51   8 2.51
                            10 2.98  11 2.98  13 2.98  10 2.98  11 2.98  13 2.98
  15  0.000  0.000  0.000-   1 2.67   2 2.67   3 2.67   4 2.67   5 2.67   6 2.67   7 2.67   8 2.67
                             9 2.98  10 2.98  11 2.98  11 2.98  10 2.98   9 2.98
  16  0.500  0.500  0.000-   1 2.63   2 2.63   3 2.63   4 2.63   5 2.63   6 2.63   7 2.63   8 2.63
                             9 2.98  10 2.98  13 2.98  13 2.98   9 2.98  10 2.98

  LATTYP: Found a simple cubic cell.
 ALAT       =     5.9531934984
  
  Lattice vectors:
  
 A1 = (   5.9531934984,   0.0000000000,   0.0000000000)
 A2 = (   0.0000000000,   5.9531934984,   0.0000000000)
 A3 = (   0.0000000000,   0.0000000000,   5.9531934984)


Analysis of symmetry for initial positions (statically):
=====================================================================
 Subroutine PRICEL returns:
 Original cell was already a primitive cell.
 

 Routine SETGRP: Setting up the symmetry group for a 
 simple cubic supercell.


 Subroutine GETGRP returns: Found 16 space group operations
 (whereof 16 operations were pure point group operations)
 out of a pool of 48 trial point group operations.


The static configuration has the point symmetry D_4h.


Analysis of symmetry for dynamics (positions and initial velocities):
=====================================================================
 Subroutine PRICEL returns:
 Original cell was already a primitive cell.
 

 Routine SETGRP: Setting up the symmetry group for a 
 simple cubic supercell.


 Subroutine GETGRP returns: Found 16 space group operations
 (whereof 16 operations were pure point group operations)
 out of a pool of 48 trial point group operations.


The dynamic configuration has the point symmetry D_4h.


Analysis of structural, dynamic, and magnetic symmetry:
=====================================================================
 Subroutine PRICEL returns:
 Original cell was already a primitive cell.
 

 Routine SETGRP: Setting up the symmetry group for a 
 simple cubic supercell.


 Subroutine GETGRP returns: Found 16 space group operations
 (whereof 16 operations were pure point group operations)
 out of a pool of 48 trial point group operations.


The magnetic configuration has the point symmetry D_4h.


 Subroutine INISYM returns: Found 16 space group operations
 (whereof 16 operations are pure point group operations),
 and found     1 'primitive' translations



 KPOINTS: k-points                                

Automatic generation of k-mesh.
Space group operators:
 irot       det(A)        alpha          n_x          n_y          n_z        tau_x        tau_y        tau_z
    1     1.000000     0.000000     1.000000     0.000000     0.000000     0.000000     0.000000     0.000000
    2    -1.000000     0.000000     1.000000     0.000000     0.000000     0.000000     0.000000     0.000000
    3     1.000000    90.000000     0.000000     0.000000    -1.000000     0.000000     0.000000     0.000000
    4    -1.000000    90.000000     0.000000     0.000000    -1.000000     0.000000     0.000000     0.000000
    5     1.000000   180.000000     0.000000     0.000000     1.000000     0.000000     0.000000     0.000000
    6    -1.000000   180.000000     0.000000     0.000000     1.000000     0.000000     0.000000     0.000000
    7     1.000000    90.000000     0.000000     0.000000     1.000000     0.000000     0.000000     0.000000
    8    -1.000000    90.000000     0.000000     0.000000     1.000000     0.000000     0.000000     0.000000
    9     1.000000   180.000000     1.000000     0.000000     0.000000     0.000000     0.000000     0.000000
   10    -1.000000   180.000000     1.000000     0.000000     0.000000     0.000000     0.000000     0.000000
   11     1.000000   180.000000     0.707107     0.707107     0.000000     0.000000     0.000000     0.000000
   12    -1.000000   180.000000     0.707107     0.707107     0.000000     0.000000     0.000000     0.000000
   13     1.000000   180.000000     0.000000     1.000000     0.000000     0.000000     0.000000     0.000000
   14    -1.000000   180.000000     0.000000     1.000000     0.000000     0.000000     0.000000     0.000000
   15     1.000000   180.000000     0.707107    -0.707107     0.000000     0.000000     0.000000     0.000000
   16    -1.000000   180.000000     0.707107    -0.707107     0.000000     0.000000     0.000000     0.000000
 
 Subroutine IBZKPT returns following result:
 ===========================================
 
 Found     40 irreducible k-points:
 
 Following reciprocal coordinates:
            Coordinates               Weight
  0.000000  0.000000  0.000000      1.000000
  0.142857  0.000000  0.000000      4.000000
  0.285714  0.000000  0.000000      4.000000
  0.428571  0.000000  0.000000      4.000000
  0.142857  0.142857  0.000000      4.000000
  0.285714  0.142857  0.000000      8.000000
  0.428571  0.142857  0.000000      8.000000
  0.285714  0.285714  0.000000      4.000000
  0.428571  0.285714  0.000000      8.000000
  0.428571  0.428571  0.000000      4.000000
  0.000000  0.000000  0.142857      2.000000
  0.142857  0.000000  0.142857      8.000000
  0.285714  0.000000  0.142857      8.000000
  0.428571  0.000000  0.142857      8.000000
  0.142857  0.142857  0.142857      8.000000
  0.285714  0.142857  0.142857     16.000000
  0.428571  0.142857  0.142857     16.000000
  0.285714  0.285714  0.142857      8.000000
  0.428571  0.285714  0.142857     16.000000
  0.428571  0.428571  0.142857      8.000000
  0.000000  0.000000  0.285714      2.000000
  0.142857  0.000000  0.285714      8.000000
  0.285714  0.000000  0.285714      8.000000
  0.428571  0.000000  0.285714      8.000000
  0.142857  0.142857  0.285714      8.000000
  0.285714  0.142857  0.285714     16.000000
  0.428571  0.142857  0.285714     16.000000
  0.285714  0.285714  0.285714      8.000000
  0.428571  0.285714  0.285714     16.000000
  0.428571  0.428571  0.285714      8.000000
  0.000000  0.000000  0.428571      2.000000
  0.142857  0.000000  0.428571      8.000000
  0.285714  0.000000  0.428571      8.000000
  0.428571  0.000000  0.428571      8.000000
  0.142857  0.142857  0.428571      8.000000
  0.285714  0.142857  0.428571     16.000000
  0.428571  0.142857  0.428571     16.000000
  0.285714  0.285714  0.428571      8.000000
  0.428571  0.285714  0.428571     16.000000
  0.428571  0.428571  0.428571      8.000000
 
 Following cartesian coordinates:
            Coordinates               Weight
  0.000000  0.000000  0.000000      1.000000
  0.138221  0.000000  0.000000      4.000000
  0.276442  0.000000  0.000000      4.000000
  0.414663  0.000000  0.000000      4.000000
  0.138221  0.138221  0.000000      4.000000
  0.276442  0.138221  0.000000      8.000000
  0.414663  0.138221  0.000000      8.000000
  0.276442  0.276442  0.000000      4.000000
  0.414663  0.276442  0.000000      8.000000
  0.414663  0.414663  0.000000      4.000000
  0.000000  0.000000  0.138221      2.000000
  0.138221  0.000000  0.138221      8.000000
  0.276442  0.000000  0.138221      8.000000
  0.414663  0.000000  0.138221      8.000000
  0.138221  0.138221  0.138221      8.000000
  0.276442  0.138221  0.138221     16.000000
  0.414663  0.138221  0.138221     16.000000
  0.276442  0.276442  0.138221      8.000000
  0.414663  0.276442  0.138221     16.000000
  0.414663  0.414663  0.138221      8.000000
  0.000000  0.000000  0.276442      2.000000
  0.138221  0.000000  0.276442      8.000000
  0.276442  0.000000  0.276442      8.000000
  0.414663  0.000000  0.276442      8.000000
  0.138221  0.138221  0.276442      8.000000
  0.276442  0.138221  0.276442     16.000000
  0.414663  0.138221  0.276442     16.000000
  0.276442  0.276442  0.276442      8.000000
  0.414663  0.276442  0.276442     16.000000
  0.414663  0.414663  0.276442      8.000000
  0.000000  0.000000  0.414663      2.000000
  0.138221  0.000000  0.414663      8.000000
  0.276442  0.000000  0.414663      8.000000
  0.414663  0.000000  0.414663      8.000000
  0.138221  0.138221  0.414663      8.000000
  0.276442  0.138221  0.414663     16.000000
  0.414663  0.138221  0.414663     16.000000
  0.276442  0.276442  0.414663      8.000000
  0.414663  0.276442  0.414663     16.000000
  0.414663  0.414663  0.414663      8.000000
 


--------------------------------------------------------------------------------------------------------




 Dimension of arrays:
   k-points           NKPTS =     40   k-points in BZ     NKDIM =     40   number of bands    NBANDS=     84
   number of dos      NEDOS =    301   number of ions     NIONS =     16
   non local maximal  LDIM  =      6   non local SUM 2l+1 LMDIM =     18
   total plane-waves  NPLWV =  46656
   max r-space proj   IRMAX =   4059   max aug-charges    IRDMAX=  25143
   dimension x,y,z NGX =    36 NGY =   36 NGZ =   36
   dimension x,y,z NGXF=    72 NGYF=   72 NGZF=   72
   support grid    NGXF=    72 NGYF=   72 NGZF=   72
   ions per type =               8   6   2
   NGX,Y,Z   is equivalent  to a cutoff of  10.05, 10.05, 10.05 a.u.
   NGXF,Y,Z  is equivalent  to a cutoff of  20.11, 20.11, 20.11 a.u.

 SYSTEM =  Testrun for NiMnIn                      
 POSCAR =  Ni2MnIn                                 

 Startparameter for this run:
   NWRITE =      2    write-flag & timer
   PREC   = normal    normal or accurate (medium, high low for compatibility)
   ISTART =      0    job   : 0-new  1-cont  2-samecut
   ICHARG =      2    charge: 1-file 2-atom 10-const
   ISPIN  =      2    spin polarized calculation?
   LNONCOLLINEAR =      F non collinear calculations
   LSORBIT =      F    spin-orbit coupling
   INIWAV =      1    electr: 0-lowe 1-rand  2-diag
   LASPH  =      F    aspherical Exc in radial PAW
   METAGGA=      F    non-selfconsistent MetaGGA calc.

 Electronic Relaxation 1
   ENCUT  =  550.0 eV  40.42 Ry    6.36 a.u.  11.38 11.38 11.38*2*pi/ulx,y,z
   ENINI  =  550.0     initial cutoff
   ENAUG  =  544.6 eV  augmentation charge cutoff
   NELM   =     60;   NELMIN=  2; NELMDL= -5     # of ELM steps 
   EDIFF  = 0.1E-04   stopping-criterion for ELM
   LREAL  =      T    real-space projection
   NLSPLINE    = F    spline interpolate recip. space projectors
   LCOMPAT=      F    compatible to vasp.4.4
   GGA_COMPAT  = T    GGA compatible to vasp.4.4-vasp.4.6
   LMAXPAW     = -100 max onsite density
   LMAXMIX     =    2 max onsite mixed and CHGCAR
   VOSKOWN=      0    Vosko Wilk Nusair interpolation
   ROPT   =   -0.00050  -0.00050  -0.00050
 Ionic relaxation
   EDIFFG = -.1E-01   stopping-criterion for IOM
   NSW    =   1000    number of steps for IOM
   NBLOCK =      1;   KBLOCK =   1000    inner block; outer block 
   IBRION =      2    ionic relax: 0-MD 1-quasi-New 2-CG
   NFREE  =      1    steps in history (QN), initial steepest desc. (CG)
   ISIF   =      2    stress and relaxation
   IWAVPR =     11    prediction:  0-non 1-charg 2-wave 3-comb
   ISYM   =      2    0-nonsym 1-usesym 2-fastsym
   LCORR  =      T    Harris-Foulkes like correction to forces

   POTIM  = 0.5000    time-step for ionic-motion
   TEIN   =    0.0    initial temperature
   TEBEG  =    0.0;   TEEND  =   0.0 temperature during run
   SMASS  =  -3.00    Nose mass-parameter (am)
   estimated Nose-frequenzy (Omega)   =  0.10E-29 period in steps =****** mass=  -0.810E-27a.u.
   SCALEE = 1.0000    scale energy and forces
   NPACO  =    256;   APACO  = 16.0  distance and # of slots for P.C.
   PSTRESS=    0.0 pullay stress

  Mass of Ions in am
   POMASS =  58.69 54.94114.82
  Ionic Valenz
   ZVAL   =  10.00  7.00  3.00
  Atomic Wigner-Seitz radii
   RWIGS  =  -1.00 -1.00 -1.00
  virtual crystal weights 
   VCA    =   1.00  1.00  1.00
   NELECT =     128.0000    total number of electrons
   NUPDOWN=      -1.0000    fix difference up-down

 DOS related values:
   EMIN   =  10.00;   EMAX   =-10.00  energy-range for DOS
   EFERMI =   0.00
   ISMEAR =     0;   SIGMA  =   0.02  broadening in eV -4-tet -1-fermi 0-gaus

 Electronic relaxation 2 (details)
   IALGO  =     68    algorithm
   LDIAG  =      T    sub-space diagonalisation (order eigenvalues)
   LSUBROT=      F    optimize rotation matrix (better conditioning)
   TURBO    =      0    0=normal 1=particle mesh
   IRESTART =      0    0=no restart 2=restart with 2 vectors
   NREBOOT  =      0    no. of reboots
   NMIN     =      0    reboot dimension
   EREF     =   0.00    reference energy to select bands
   IMIX   =      4    mixing-type and parameters
     AMIX     =   0.40;   BMIX     =  1.00
     AMIX_MAG =   1.60;   BMIX_MAG =  1.00
     AMIN     =   0.10
     WC   =   100.;   INIMIX=   1;  MIXPRE=   1;  MAXMIX= -45

 Intra band minimization:
   WEIMIN = 0.0010     energy-eigenvalue tresh-hold
   EBREAK =  0.30E-07  absolut break condition
   DEPER  =   0.30     relativ break condition  

   TIME   =   0.40     timestep for ELM

  volume/ion in A,a.u.               =      13.19        88.99
  Fermi-wavevector in a.u.,A,eV,Ry     =   1.385888  2.618949 26.132516  1.920686
  Thomas-Fermi vector in A             =   2.510256

 Write flags
   LWAVE        =      F    write WAVECAR
   LDOWNSAMPLE  =      F    k-point downsampling of WAVECAR
   LCHARG       =      T    write CHGCAR
   LVTOT        =      F    write LOCPOT, total local potential
   LVHAR        =      F    write LOCPOT, Hartree potential only
   LELF         =      F    write electronic localiz. function (ELF)
   LORBIT       =     11    0 simple, 1 ext, 2 COOP (PROOUT), +10 PAW based schemes


 Dipole corrections
   LMONO  =      F    monopole corrections only (constant potential shift)
   LDIPOL =      F    correct potential (dipole corrections)
   IDIPOL =      0    1-x, 2-y, 3-z, 4-all directions 
   EPSILON=  1.0000000 bulk dielectric constant

 Exchange correlation treatment:
   GGA     =    --    GGA type
   LEXCH   =     8    internal setting for exchange type
   VOSKOWN=      0    Vosko Wilk Nusair interpolation
   LHFCALC =     F    Hartree Fock is set to
   LHFONE  =     F    Hartree Fock one center treatment
   AEXX    =    0.0000 exact exchange contribution

 Linear response parameters
   LEPSILON=     F    determine dielectric tensor
   LRPA    =     F    only Hartree local field effects (RPA)
   LNABLA  =     F    use nabla operator in PAW spheres
   LVEL    =     F    velocity operator in full k-point grid
   LINTERFAST=   F  fast interpolation
   KINTER  =     0    interpolate to denser k-point grid
   CSHIFT  =0.1000    complex shift for real part using Kramers Kronig
   OMEGAMAX=  -1.0    maximum frequency
   DEG_THRESHOLD= 0.2000000E-02 threshold for treating states as degnerate
   RTIME   =   -0.100 relaxation time in fs
  (WPLASMAI=    0.000 imaginary part of plasma frequency in eV, 0.658/RTIME)
   DFIELD  = 0.0000000 0.0000000 0.0000000 field for delta impulse in time

 Orbital magnetization related:
   ORBITALMAG=     F  switch on orbital magnetization
   LCHIMAG   =     F  perturbation theory with respect to B field
   DQ        =  0.001000  dq finite difference perturbation B field
   LLRAUG    =     F  two centre corrections for induced B field



--------------------------------------------------------------------------------------------------------


 conjugate gradient relaxation of ions
 charge density and potential will be updated during run
 spin polarized calculation
 RMM-DIIS sequential band-by-band and
  variant of blocked Davidson during initial phase
 perform sub-space diagonalisation
    before iterative eigenvector-optimisation
 modified Broyden-mixing scheme, WC =      100.0
 initial mixing is a Kerker type mixing with AMIX =  0.4000 and BMIX =      1.0000
 Hartree-type preconditioning will be used
 using additional bands           20
 real space projection scheme for non local part
 use partial core corrections
 calculate Harris-corrections to forces   (improved forces if not selfconsistent)
 use gradient corrections 
 use of overlap-Matrix (Vanderbilt PP)
 Gauss-broadening in eV      SIGMA  =   0.02


--------------------------------------------------------------------------------------------------------


  energy-cutoff  :      550.00
  volume of cell :      210.98
      direct lattice vectors                 reciprocal lattice vectors
     5.953193498  0.000000000  0.000000000     0.167977070  0.000000000  0.000000000
     0.000000000  5.953193498  0.000000000     0.000000000  0.167977070  0.000000000
     0.000000000  0.000000000  5.953193498     0.000000000  0.000000000  0.167977070

  length of vectors
     5.953193498  5.953193498  5.953193498     0.167977070  0.167977070  0.167977070



 k-points in units of 2pi/SCALE and weight: k-points                                
   0.00000000  0.00000000  0.00000000       0.003
   0.13822113  0.00000000  0.00000000       0.012
   0.27644226  0.00000000  0.00000000       0.012
   0.41466340  0.00000000  0.00000000       0.012
   0.13822113  0.13822113  0.00000000       0.012
   0.27644226  0.13822113  0.00000000       0.023
   0.41466340  0.13822113  0.00000000       0.023
   0.27644226  0.27644226  0.00000000       0.012
   0.41466340  0.27644226  0.00000000       0.023
   0.41466340  0.41466340  0.00000000       0.012
   0.00000000  0.00000000  0.13822113       0.006
   0.13822113  0.00000000  0.13822113       0.023
   0.27644226  0.00000000  0.13822113       0.023
   0.41466340  0.00000000  0.13822113       0.023
   0.13822113  0.13822113  0.13822113       0.023
   0.27644226  0.13822113  0.13822113       0.047
   0.41466340  0.13822113  0.13822113       0.047
   0.27644226  0.27644226  0.13822113       0.023
   0.41466340  0.27644226  0.13822113       0.047
   0.41466340  0.41466340  0.13822113       0.023
   0.00000000  0.00000000  0.27644226       0.006
   0.13822113  0.00000000  0.27644226       0.023
   0.27644226  0.00000000  0.27644226       0.023
   0.41466340  0.00000000  0.27644226       0.023
   0.13822113  0.13822113  0.27644226       0.023
   0.27644226  0.13822113  0.27644226       0.047
   0.41466340  0.13822113  0.27644226       0.047
   0.27644226  0.27644226  0.27644226       0.023
   0.41466340  0.27644226  0.27644226       0.047
   0.41466340  0.41466340  0.27644226       0.023
   0.00000000  0.00000000  0.41466340       0.006
   0.13822113  0.00000000  0.41466340       0.023
   0.27644226  0.00000000  0.41466340       0.023
   0.41466340  0.00000000  0.41466340       0.023
   0.13822113  0.13822113  0.41466340       0.023
   0.27644226  0.13822113  0.41466340       0.047
   0.41466340  0.13822113  0.41466340       0.047
   0.27644226  0.27644226  0.41466340       0.023
   0.41466340  0.27644226  0.41466340       0.047
   0.41466340  0.41466340  0.41466340       0.023

 k-points in reciprocal lattice and weights: k-points                                
   0.00000000  0.00000000  0.00000000       0.003
   0.14285714  0.00000000  0.00000000       0.012
   0.28571429  0.00000000  0.00000000       0.012
   0.42857143  0.00000000  0.00000000       0.012
   0.14285714  0.14285714  0.00000000       0.012
   0.28571429  0.14285714  0.00000000       0.023
   0.42857143  0.14285714  0.00000000       0.023
   0.28571429  0.28571429  0.00000000       0.012
   0.42857143  0.28571429  0.00000000       0.023
   0.42857143  0.42857143  0.00000000       0.012
   0.00000000  0.00000000  0.14285714       0.006
   0.14285714  0.00000000  0.14285714       0.023
   0.28571429  0.00000000  0.14285714       0.023
   0.42857143  0.00000000  0.14285714       0.023
   0.14285714  0.14285714  0.14285714       0.023
   0.28571429  0.14285714  0.14285714       0.047
   0.42857143  0.14285714  0.14285714       0.047
   0.28571429  0.28571429  0.14285714       0.023
   0.42857143  0.28571429  0.14285714       0.047
   0.42857143  0.42857143  0.14285714       0.023
   0.00000000  0.00000000  0.28571429       0.006
   0.14285714  0.00000000  0.28571429       0.023
   0.28571429  0.00000000  0.28571429       0.023
   0.42857143  0.00000000  0.28571429       0.023
   0.14285714  0.14285714  0.28571429       0.023
   0.28571429  0.14285714  0.28571429       0.047
   0.42857143  0.14285714  0.28571429       0.047
   0.28571429  0.28571429  0.28571429       0.023
   0.42857143  0.28571429  0.28571429       0.047
   0.42857143  0.42857143  0.28571429       0.023
   0.00000000  0.00000000  0.42857143       0.006
   0.14285714  0.00000000  0.42857143       0.023
   0.28571429  0.00000000  0.42857143       0.023
   0.42857143  0.00000000  0.42857143       0.023
   0.14285714  0.14285714  0.42857143       0.023
   0.28571429  0.14285714  0.42857143       0.047
   0.42857143  0.14285714  0.42857143       0.047
   0.28571429  0.28571429  0.42857143       0.023
   0.42857143  0.28571429  0.42857143       0.047
   0.42857143  0.42857143  0.42857143       0.023

 position of ions in fractional coordinates (direct lattice) 
   0.25325248  0.25325248  0.27050511
   0.74674752  0.25325248  0.27050511
   0.25325248  0.74674752  0.27050511
   0.74674752  0.74674752  0.27050511
   0.25325248  0.25325248  0.72949489
   0.74674752  0.25325248  0.72949489
   0.25325248  0.74674752  0.72949489
   0.74674752  0.74674752  0.72949489
   0.50000000  0.00000000  0.00000000
   0.00000000  0.50000000  0.00000000
   0.00000000  0.00000000  0.50000000
   0.50000000  0.00000000  0.50000000
   0.50000000  0.50000000  0.50000000
   0.00000000  0.50000000  0.50000000
   0.00000000  0.00000000  0.00000000
   0.50000000  0.50000000  0.00000000

 position of ions in cartesian coordinates  (Angst):
   1.50766104  1.50766104  1.61036927
   4.44553246  1.50766104  1.61036927
   1.50766104  4.44553246  1.61036927
   4.44553246  4.44553246  1.61036927
   1.50766104  1.50766104  4.34282423
   4.44553246  1.50766104  4.34282423
   1.50766104  4.44553246  4.34282423
   4.44553246  4.44553246  4.34282423
   2.97659675  0.00000000  0.00000000
   0.00000000  2.97659675  0.00000000
   0.00000000  0.00000000  2.97659675
   2.97659675  0.00000000  2.97659675
   2.97659675  2.97659675  2.97659675
   0.00000000  2.97659675  2.97659675
   0.00000000  0.00000000  0.00000000
   2.97659675  2.97659675  0.00000000



--------------------------------------------------------------------------------------------------------


 k-point  1 :   0.0000 0.0000 0.0000  plane waves:    6187
 k-point  2 :   0.1429 0.0000 0.0000  plane waves:    6163
 k-point  3 :   0.2857 0.0000 0.0000  plane waves:    6167
 k-point  4 :   0.4286 0.0000 0.0000  plane waves:    6190
 k-point  5 :   0.1429 0.1429 0.0000  plane waves:    6194
 k-point  6 :   0.2857 0.1429 0.0000  plane waves:    6184
 k-point  7 :   0.4286 0.1429 0.0000  plane waves:    6198
 k-point  8 :   0.2857 0.2857 0.0000  plane waves:    6166
 k-point  9 :   0.4286 0.2857 0.0000  plane waves:    6179
 k-point 10 :   0.4286 0.4286 0.0000  plane waves:    6174
 k-point 11 :   0.0000 0.0000 0.1429  plane waves:    6163
 k-point 12 :   0.1429 0.0000 0.1429  plane waves:    6194
 k-point 13 :   0.2857 0.0000 0.1429  plane waves:    6184
 k-point 14 :   0.4286 0.0000 0.1429  plane waves:    6198
 k-point 15 :   0.1429 0.1429 0.1429  plane waves:    6193
 k-point 16 :   0.2857 0.1429 0.1429  plane waves:    6186
 k-point 17 :   0.4286 0.1429 0.1429  plane waves:    6176
 k-point 18 :   0.2857 0.2857 0.1429  plane waves:    6179
 k-point 19 :   0.4286 0.2857 0.1429  plane waves:    6181
 k-point 20 :   0.4286 0.4286 0.1429  plane waves:    6175
 k-point 21 :   0.0000 0.0000 0.2857  plane waves:    6167
 k-point 22 :   0.1429 0.0000 0.2857  plane waves:    6184
 k-point 23 :   0.2857 0.0000 0.2857  plane waves:    6166
 k-point 24 :   0.4286 0.0000 0.2857  plane waves:    6179
 k-point 25 :   0.1429 0.1429 0.2857  plane waves:    6186
 k-point 26 :   0.2857 0.1429 0.2857  plane waves:    6179
 k-point 27 :   0.4286 0.1429 0.2857  plane waves:    6181
 k-point 28 :   0.2857 0.2857 0.2857  plane waves:    6181
 k-point 29 :   0.4286 0.2857 0.2857  plane waves:    6194
 k-point 30 :   0.4286 0.4286 0.2857  plane waves:    6144
 k-point 31 :   0.0000 0.0000 0.4286  plane waves:    6190
 k-point 32 :   0.1429 0.0000 0.4286  plane waves:    6198
 k-point 33 :   0.2857 0.0000 0.4286  plane waves:    6179
 k-point 34 :   0.4286 0.0000 0.4286  plane waves:    6174
 k-point 35 :   0.1429 0.1429 0.4286  plane waves:    6176
 k-point 36 :   0.2857 0.1429 0.4286  plane waves:    6181
 k-point 37 :   0.4286 0.1429 0.4286  plane waves:    6175
 k-point 38 :   0.2857 0.2857 0.4286  plane waves:    6194
 k-point 39 :   0.4286 0.2857 0.4286  plane waves:    6144
 k-point 40 :   0.4286 0.4286 0.4286  plane waves:    6137

 maximum and minimum number of plane-waves per node :      6198     6137

 maximum number of plane-waves:      6198
 maximum index in each direction: 
   IXMAX=   11   IYMAX=   11   IZMAX=   11
   IXMIN=  -11   IYMIN=  -11   IZMIN=  -11


 serial   3D FFT for wavefunctions
 parallel 3D FFT for charge:
    minimum data exchange during FFTs selected (reduces bandwidth)


 total amount of memory used by VASP MPI-rank0   103314. kBytes
=======================================================================

   base      :      30000. kBytes
   nonlr-proj:       6807. kBytes
   fftplans  :       1269. kBytes
   grid      :       6573. kBytes
   one-center:        497. kBytes
   wavefun   :      58168. kBytes

     INWAV:  cpu time    0.0000: real time    0.0000
 Broyden mixing: mesh for mixing (old mesh)
   NGX = 23   NGY = 23   NGZ = 23
  (NGX  = 72   NGY  = 72   NGZ  = 72)
  gives a total of  12167 points

 initial charge density was supplied:
 charge density of overlapping atoms calculated
 number of electron     128.0000000 magnetization       0.8000000
 keeping initial charge density in first step


--------------------------------------------------------------------------------------------------------


 Maximum index for non-local projection operator         3887
 Maximum index for augmentation-charges         2111 (set IRDMAX)


--------------------------------------------------------------------------------------------------------


 First call to EWALD:  gamma=   0.298
 Maximum number of real-space cells 3x 3x 3
 Maximum number of reciprocal cells 3x 3x 3

    FEWALD:  cpu time    0.0020: real time    0.0020


--------------------------------------- Iteration      1(   1)  ---------------------------------------


    POTLOK:  cpu time    0.1058: real time    0.1108
    SETDIJ:  cpu time    0.0377: real time    0.0377
     EDDAV:  cpu time   29.4311: real time   31.1902
       DOS:  cpu time    0.0037: real time    0.0037
    --------------------------------------------
      LOOP:  cpu time   29.5783: real time   31.3425

 eigenvalue-minimisations  : 13440
 total energy-change (2. order) : 0.1068403E+04  (-0.5418100E+04)
 number of electron     128.0000000 magnetization       0.8000000
 augmentation part      128.0000000 magnetization       0.8000000

 Free energy of the ion-electron system (eV)
  ---------------------------------------------------
  alpha Z        PSCENC =       533.33165426
  Ewald energy   TEWEN  =     -9275.83395968
  -Hartree energ DENC   =     -3155.95858375
  -exchange      EXHF   =         0.00000000
  -V(xc)+E(xc)   XCENC  =        78.36533482
  PAW double counting   =     10320.96726947   -10647.99417394
  entropy T*S    EENTRO =        -0.00160861
  eigenvalues    EBANDS =      1986.06509037
  atomic energy  EATOM  =     11229.46195210
  Solvation  Ediel_sol  =         0.00000000
  ---------------------------------------------------
  free energy    TOTEN  =      1068.40297505 eV

  energy without entropy =     1068.40458365  energy(sigma->0) =     1068.40377935


--------------------------------------------------------------------------------------------------------




--------------------------------------- Iteration      1(   2)  ---------------------------------------


     EDDAV:  cpu time   28.8997: real time   30.4823
       DOS:  cpu time    0.0034: real time    0.0035
    --------------------------------------------
      LOOP:  cpu time   28.9031: real time   30.4857

 eigenvalue-minimisations  : 13440
 total energy-change (2. order) :-0.1067035E+04  (-0.1034088E+04)
 number of electron     128.0000000 magnetization       0.8000000
 augmentation part      128.0000000 magnetization       0.8000000

 Free energy of the ion-electron system (eV)
  ---------------------------------------------------
  alpha Z        PSCENC =       533.33165426
  Ewald energy   TEWEN  =     -9275.83395968
  -Hartree energ DENC   =     -3155.95858375
  -exchange      EXHF   =         0.00000000
  -V(xc)+E(xc)   XCENC  =        78.36533482
  PAW double counting   =     10320.96726947   -10647.99417394
  entropy T*S    EENTRO =        -0.00310726
  eigenvalues    EBANDS =       919.03179784
  atomic energy  EATOM  =     11229.46195210
  Solvation  Ediel_sol  =         0.00000000
  ---------------------------------------------------
  free energy    TOTEN  =         1.36818386 eV

  energy without entropy =        1.37129112  energy(sigma->0) =        1.36973749


--------------------------------------------------------------------------------------------------------




--------------------------------------- Iteration      1(   3)  ---------------------------------------


     EDDAV:  cpu time   31.5982: real time   33.5091
       DOS:  cpu time    0.0039: real time    0.0039
    --------------------------------------------
      LOOP:  cpu time   31.6021: real time   33.5130

 eigenvalue-minimisations  : 15084
 total energy-change (2. order) :-0.1114071E+03  (-0.1001650E+03)
 number of electron     128.0000000 magnetization       0.8000000
 augmentation part      128.0000000 magnetization       0.8000000

 Free energy of the ion-electron system (eV)
  ---------------------------------------------------
  alpha Z        PSCENC =       533.33165426
  Ewald energy   TEWEN  =     -9275.83395968
  -Hartree energ DENC   =     -3155.95858375
  -exchange      EXHF   =         0.00000000
  -V(xc)+E(xc)   XCENC  =        78.36533482
  PAW double counting   =     10320.96726947   -10647.99417394
  entropy T*S    EENTRO =        -0.00335649
  eigenvalues    EBANDS =       807.62491280
  atomic energy  EATOM  =     11229.46195210
  Solvation  Ediel_sol  =         0.00000000
  ---------------------------------------------------
  free energy    TOTEN  =      -110.03895041 eV

  energy without entropy =     -110.03559392  energy(sigma->0) =     -110.03727217


--------------------------------------------------------------------------------------------------------




--------------------------------------- Iteration      1(   4)  ---------------------------------------


     EDDAV:  cpu time   40.9059: real time   42.5309
       DOS:  cpu time    0.0037: real time    0.0037
    --------------------------------------------
      LOOP:  cpu time   40.9097: real time   42.5346

 eigenvalue-minimisations  : 20076
 total energy-change (2. order) :-0.6831523E+01  (-0.6481019E+01)
 number of electron     128.0000000 magnetization       0.8000000
 augmentation part      128.0000000 magnetization       0.8000000

 Free energy of the ion-electron system (eV)
  ---------------------------------------------------
  alpha Z        PSCENC =       533.33165426
  Ewald energy   TEWEN  =     -9275.83395968
  -Hartree energ DENC   =     -3155.95858375
  -exchange      EXHF   =         0.00000000
  -V(xc)+E(xc)   XCENC  =        78.36533482
  PAW double counting   =     10320.96726947   -10647.99417394
  entropy T*S    EENTRO =        -0.00288373
  eigenvalues    EBANDS =       800.79291697
  atomic energy  EATOM  =     11229.46195210
  Solvation  Ediel_sol  =         0.00000000
  ---------------------------------------------------
  free energy    TOTEN  =      -116.87047348 eV

  energy without entropy =     -116.86758975  energy(sigma->0) =     -116.86903162


--------------------------------------------------------------------------------------------------------




--------------------------------------- Iteration      1(   5)  ---------------------------------------


     EDDAV:  cpu time   39.0172: real time   41.4420
       DOS:  cpu time    0.0039: real time    0.0039
    CHARGE:  cpu time    0.8404: real time    0.8709
    MIXING:  cpu time    0.0016: real time    0.0016
    --------------------------------------------
      LOOP:  cpu time   39.8631: real time   42.3184

 eigenvalue-minimisations  : 19668
 total energy-change (2. order) :-0.2302390E+00  (-0.2293162E+00)
 number of electron     128.0000251 magnetization      -0.4994986
 augmentation part       60.6050046 magnetization      -0.0347709

 Broyden mixing:
  rms(total) = 0.34499E+01    rms(broyden)= 0.34499E+01
  rms(prec ) = 0.52854E+01
  weight for this iteration     100.00

 Free energy of the ion-electron system (eV)
  ---------------------------------------------------
  alpha Z        PSCENC =       533.33165426
  Ewald energy   TEWEN  =     -9275.83395968
  -Hartree energ DENC   =     -3155.95858375
  -exchange      EXHF   =         0.00000000
  -V(xc)+E(xc)   XCENC  =        78.36533482
  PAW double counting   =     10320.96726947   -10647.99417394
  entropy T*S    EENTRO =        -0.00287473
  eigenvalues    EBANDS =       800.56266894
  atomic energy  EATOM  =     11229.46195210
  Solvation  Ediel_sol  =         0.00000000
  ---------------------------------------------------
  free energy    TOTEN  =      -117.10071251 eV

  energy without entropy =     -117.09783778  energy(sigma->0) =     -117.09927514


--------------------------------------------------------------------------------------------------------




--------------------------------------- Iteration      1(   6)  ---------------------------------------


    POTLOK:  cpu time    0.1101: real time    0.1181
    SETDIJ:  cpu time    0.0378: real time    0.0379
    EDDIAG:  cpu time    4.3157: real time    4.4181
  RMM-DIIS:  cpu time   10.6202: real time   10.8876
    ORTHCH:  cpu time    0.6734: real time    0.6762
       DOS:  cpu time    0.0040: real time    0.0040
    CHARGE:  cpu time    0.7301: real time    0.8501
    MIXING:  cpu time    0.0016: real time    0.0017
    --------------------------------------------
      LOOP:  cpu time   16.4930: real time   16.9936

 eigenvalue-minimisations  : 13440
 total energy-change (2. order) : 0.8901589E+01  (-0.1552654E+02)
 number of electron     128.0000290 magnetization      -0.0134467
 augmentation part       69.9124553 magnetization      -0.2290982

 Broyden mixing:
  rms(total) = 0.41464E+01    rms(broyden)= 0.41464E+01
  rms(prec ) = 0.51569E+01
  weight for this iteration     100.00

 eigenvalues of (default mixing * dielectric matrix)
  average eigenvalue GAMMA=   0.2406
  0.2406

 Free energy of the ion-electron system (eV)
  ---------------------------------------------------
  alpha Z        PSCENC =       533.33165426
  Ewald energy   TEWEN  =     -9275.83395968
  -Hartree energ DENC   =     -2918.21920044
  -exchange      EXHF   =         0.00000000
  -V(xc)+E(xc)   XCENC  =        66.36419691
  PAW double counting   =     11127.91642348   -11420.21767647
  entropy T*S    EENTRO =        -0.00488846
  eigenvalues    EBANDS =       549.00237504
  atomic energy  EATOM  =     11229.46195210
  Solvation  Ediel_sol  =         0.00000000
  ---------------------------------------------------
  free energy    TOTEN  =      -108.19912326 eV

  energy without entropy =     -108.19423481  energy(sigma->0) =     -108.19667903


--------------------------------------------------------------------------------------------------------




--------------------------------------- Iteration      1(   7)  ---------------------------------------


    POTLOK:  cpu time    0.0972: real time    0.0973
    SETDIJ:  cpu time    0.0356: real time    0.0356
    EDDIAG:  cpu time    4.1232: real time    4.3329
  RMM-DIIS:  cpu time   10.3010: real time   10.8745
    ORTHCH:  cpu time    0.6146: real time    0.6151
       DOS:  cpu time    0.0039: real time    0.0039
    CHARGE:  cpu time    0.6714: real time    0.7886
    MIXING:  cpu time    0.0017: real time    0.0017
    --------------------------------------------
      LOOP:  cpu time   15.8486: real time   16.7496

 eigenvalue-minimisations  : 13616
 total energy-change (2. order) :-0.9911184E-01  (-0.1859818E+01)
 number of electron     128.0000285 magnetization       0.0386902
 augmentation part       69.7284344 magnetization       0.0431684

 Broyden mixing:
  rms(total) = 0.29358E+01    rms(broyden)= 0.29358E+01
  rms(prec ) = 0.49602E+01
  weight for this iteration     100.00

 eigenvalues of (default mixing * dielectric matrix)
  average eigenvalue GAMMA=   0.4892
  0.4892  0.4892

 Free energy of the ion-electron system (eV)
  ---------------------------------------------------
  alpha Z        PSCENC =       533.33165426
  Ewald energy   TEWEN  =     -9275.83395968
  -Hartree energ DENC   =     -2924.22332493
  -exchange      EXHF   =         0.00000000
  -V(xc)+E(xc)   XCENC  =        69.11045679
  PAW double counting   =     11483.30542353   -11787.27555125
  entropy T*S    EENTRO =        -0.00170556
  eigenvalues    EBANDS =       563.82681963
  atomic energy  EATOM  =     11229.46195210
  Solvation  Ediel_sol  =         0.00000000
  ---------------------------------------------------
  free energy    TOTEN  =      -108.29823510 eV

  energy without entropy =     -108.29652954  energy(sigma->0) =     -108.29738232


--------------------------------------------------------------------------------------------------------




--------------------------------------- Iteration      1(   8)  ---------------------------------------


    POTLOK:  cpu time    0.0974: real time    0.0975
    SETDIJ:  cpu time    0.0356: real time    0.0356
    EDDIAG:  cpu time    3.9920: real time    4.1643
  RMM-DIIS:  cpu time   10.4321: real time   10.8668
    ORTHCH:  cpu time    0.6124: real time    0.6130
       DOS:  cpu time    0.0038: real time    0.0038
    CHARGE:  cpu time    0.7772: real time    0.8707
    MIXING:  cpu time    0.0017: real time    0.0017
    --------------------------------------------
      LOOP:  cpu time   15.9523: real time   16.6535

 eigenvalue-minimisations  : 13442
 total energy-change (2. order) : 0.2469718E+01  (-0.1904586E+01)
 number of electron     128.0000280 magnetization      -0.0765054
 augmentation part       67.4196195 magnetization       0.1289949

 Broyden mixing:
  rms(total) = 0.21133E+01    rms(broyden)= 0.21132E+01
  rms(prec ) = 0.37853E+01
  weight for this iteration     100.00

 eigenvalues of (default mixing * dielectric matrix)
  average eigenvalue GAMMA=   0.5189
  0.8496  0.5130  0.1941

 Free energy of the ion-electron system (eV)
  ---------------------------------------------------
  alpha Z        PSCENC =       533.33165426
  Ewald energy   TEWEN  =     -9275.83395968
  -Hartree energ DENC   =     -2973.12256093
  -exchange      EXHF   =         0.00000000
  -V(xc)+E(xc)   XCENC  =        72.72372597
  PAW double counting   =     11838.49680754   -12164.88488401
  entropy T*S    EENTRO =        -0.00527889
  eigenvalues    EBANDS =       634.00402646
  atomic energy  EATOM  =     11229.46195210
  Solvation  Ediel_sol  =         0.00000000
  ---------------------------------------------------
  free energy    TOTEN  =      -105.82851719 eV

  energy without entropy =     -105.82323830  energy(sigma->0) =     -105.82587774


--------------------------------------------------------------------------------------------------------




--------------------------------------- Iteration      1(   9)  ---------------------------------------


    POTLOK:  cpu time    0.0960: real time    0.1148
    SETDIJ:  cpu time    0.0355: real time    0.0356
    EDDIAG:  cpu time    4.0628: real time    4.2509
  RMM-DIIS:  cpu time   10.8151: real time   11.1560
    ORTHCH:  cpu time    0.6141: real time    0.6146
       DOS:  cpu time    0.0037: real time    0.0038
    CHARGE:  cpu time    0.6877: real time    0.7832
    MIXING:  cpu time    0.0019: real time    0.0019
    --------------------------------------------
      LOOP:  cpu time   16.3168: real time   16.9608

 eigenvalue-minimisations  : 13555
 total energy-change (2. order) : 0.2496179E+01  (-0.2264365E+00)
 number of electron     128.0000280 magnetization      -0.0167276
 augmentation part       67.3510061 magnetization      -0.0405131

 Broyden mixing:
  rms(total) = 0.82737E+00    rms(broyden)= 0.82731E+00
  rms(prec ) = 0.11156E+01
  weight for this iteration     100.00

 eigenvalues of (default mixing * dielectric matrix)
  average eigenvalue GAMMA=   0.5868
  1.0833  0.5431  0.5431  0.1779

 Free energy of the ion-electron system (eV)
  ---------------------------------------------------
  alpha Z        PSCENC =       533.33165426
  Ewald energy   TEWEN  =     -9275.83395968
  -Hartree energ DENC   =     -2969.44748343
  -exchange      EXHF   =         0.00000000
  -V(xc)+E(xc)   XCENC  =        72.85835831
  PAW double counting   =     12142.77328947   -12475.49337983
  entropy T*S    EENTRO =        -0.00204354
  eigenvalues    EBANDS =       639.01927379
  atomic energy  EATOM  =     11229.46195210
  Solvation  Ediel_sol  =         0.00000000
  ---------------------------------------------------
  free energy    TOTEN  =      -103.33233856 eV

  energy without entropy =     -103.33029502  energy(sigma->0) =     -103.33131679


--------------------------------------------------------------------------------------------------------




--------------------------------------- Iteration      1(  10)  ---------------------------------------


    POTLOK:  cpu time    0.1265: real time    0.1589
    SETDIJ:  cpu time    0.0378: real time    0.0378
    EDDIAG:  cpu time    3.7867: real time    4.0728
  RMM-DIIS:  cpu time   10.3224: real time   10.7961
    ORTHCH:  cpu time    0.8775: real time    0.8783
       DOS:  cpu time    0.0039: real time    0.0041
    CHARGE:  cpu time    0.8058: real time    0.8065
    MIXING:  cpu time    0.0020: real time    0.0020
    --------------------------------------------
      LOOP:  cpu time   15.9626: real time   16.7563

 eigenvalue-minimisations  : 13448
 total energy-change (2. order) :-0.3930813E+00  (-0.1174219E+00)
 number of electron     128.0000282 magnetization      -0.0241193
 augmentation part       67.9529415 magnetization       0.2498965

 Broyden mixing:
  rms(total) = 0.85595E+00    rms(broyden)= 0.85593E+00
  rms(prec ) = 0.15690E+01
  weight for this iteration     100.00

 eigenvalues of (default mixing * dielectric matrix)
  average eigenvalue GAMMA=   0.5642
  1.1651  0.5995  0.5995  0.1846  0.2723

 Free energy of the ion-electron system (eV)
  ---------------------------------------------------
  alpha Z        PSCENC =       533.33165426
  Ewald energy   TEWEN  =     -9275.83395968
  -Hartree energ DENC   =     -2957.41038433
  -exchange      EXHF   =         0.00000000
  -V(xc)+E(xc)   XCENC  =        73.43968585
  PAW double counting   =     12407.24171195   -12742.87793148
  entropy T*S    EENTRO =        -0.00223310
  eigenvalues    EBANDS =       628.92408461
  atomic energy  EATOM  =     11229.46195210
  Solvation  Ediel_sol  =         0.00000000
  ---------------------------------------------------
  free energy    TOTEN  =      -103.72541983 eV

  energy without entropy =     -103.72318673  energy(sigma->0) =     -103.72430328


--------------------------------------------------------------------------------------------------------




--------------------------------------- Iteration      1(  11)  ---------------------------------------


    POTLOK:  cpu time    0.1528: real time    0.2485
    SETDIJ:  cpu time    0.0766: real time    0.0772
    EDDIAG:  cpu time    3.8163: real time    3.9826
  RMM-DIIS:  cpu time   10.1580: real time   10.8502
    ORTHCH:  cpu time    0.9701: real time    0.9971
       DOS:  cpu time    0.0039: real time    0.0039
    CHARGE:  cpu time    0.6659: real time    0.6663
    MIXING:  cpu time    0.0021: real time    0.0206
    --------------------------------------------
      LOOP:  cpu time   15.8457: real time   16.8464

 eigenvalue-minimisations  : 13451
 total energy-change (2. order) : 0.3923321E+00  (-0.4915192E-01)
 number of electron     128.0000280 magnetization       0.0875190
 augmentation part       67.7075302 magnetization       0.0340755

 Broyden mixing:
  rms(total) = 0.31986E+00    rms(broyden)= 0.31983E+00
  rms(prec ) = 0.43054E+00
  weight for this iteration     100.00

 eigenvalues of (default mixing * dielectric matrix)
  average eigenvalue GAMMA=   0.6490
  1.4498  0.7413  0.7413  0.5819  0.1897  0.1897

 Free energy of the ion-electron system (eV)
  ---------------------------------------------------
  alpha Z        PSCENC =       533.33165426
  Ewald energy   TEWEN  =     -9275.83395968
  -Hartree energ DENC   =     -2958.04062606
  -exchange      EXHF   =         0.00000000
  -V(xc)+E(xc)   XCENC  =        74.41752081
  PAW double counting   =     12588.95419268   -12928.46245796
  entropy T*S    EENTRO =        -0.00208989
  eigenvalues    EBANDS =       632.84072606
  atomic energy  EATOM  =     11229.46195210
  Solvation  Ediel_sol  =         0.00000000
  ---------------------------------------------------
  free energy    TOTEN  =      -103.33308768 eV

  energy without entropy =     -103.33099779  energy(sigma->0) =     -103.33204273


--------------------------------------------------------------------------------------------------------




--------------------------------------- Iteration      1(  12)  ---------------------------------------


    POTLOK:  cpu time    0.1274: real time    0.1706
    SETDIJ:  cpu time    0.0637: real time    0.0637
    EDDIAG:  cpu time    4.1810: real time    4.2599
  RMM-DIIS:  cpu time   10.6788: real time   11.0141
    ORTHCH:  cpu time    0.9884: real time    0.9890
       DOS:  cpu time    0.0039: real time    0.0039
    CHARGE:  cpu time    0.6642: real time    0.6646
    MIXING:  cpu time    0.0022: real time    0.0022
    --------------------------------------------
      LOOP:  cpu time   16.7095: real time   17.1680

 eigenvalue-minimisations  : 13581
 total energy-change (2. order) :-0.6178634E-01  (-0.2769333E-01)
 number of electron     128.0000280 magnetization       0.1758001
 augmentation part       67.4882281 magnetization       0.2327685

 Broyden mixing:
  rms(total) = 0.33623E+00    rms(broyden)= 0.33622E+00
  rms(prec ) = 0.50281E+00
  weight for this iteration     100.00

 eigenvalues of (default mixing * dielectric matrix)
  average eigenvalue GAMMA=   0.7082
  2.0337  0.8237  0.8237  0.5728  0.3211  0.1799  0.2025

 Free energy of the ion-electron system (eV)
  ---------------------------------------------------
  alpha Z        PSCENC =       533.33165426
  Ewald energy   TEWEN  =     -9275.83395968
  -Hartree energ DENC   =     -2959.06075176
  -exchange      EXHF   =         0.00000000
  -V(xc)+E(xc)   XCENC  =        75.07863575
  PAW double counting   =     12730.94669933   -13073.52057591
  entropy T*S    EENTRO =        -0.00209833
  eigenvalues    EBANDS =       636.20357022
  atomic energy  EATOM  =     11229.46195210
  Solvation  Ediel_sol  =         0.00000000
  ---------------------------------------------------
  free energy    TOTEN  =      -103.39487402 eV

  energy without entropy =     -103.39277569  energy(sigma->0) =     -103.39382486


--------------------------------------------------------------------------------------------------------




--------------------------------------- Iteration      1(  13)  ---------------------------------------


    POTLOK:  cpu time    0.1311: real time    0.1312
    SETDIJ:  cpu time    0.0657: real time    0.0657
    EDDIAG:  cpu time    4.2920: real time    4.2954
  RMM-DIIS:  cpu time   11.0516: real time   11.0606
    ORTHCH:  cpu time    0.9847: real time    0.9853
       DOS:  cpu time    0.0038: real time    0.0038
    CHARGE:  cpu time    0.8262: real time    0.8271
    MIXING:  cpu time    0.0023: real time    0.0023
    --------------------------------------------
      LOOP:  cpu time   17.3574: real time   17.3714

 eigenvalue-minimisations  : 13485
 total energy-change (2. order) : 0.3141841E-01  (-0.1180143E-01)
 number of electron     128.0000281 magnetization       0.2316628
 augmentation part       67.7623624 magnetization       0.2066709

 Broyden mixing:
  rms(total) = 0.11759E+00    rms(broyden)= 0.11759E+00
  rms(prec ) = 0.16184E+00
  weight for this iteration     100.00

 eigenvalues of (default mixing * dielectric matrix)
  average eigenvalue GAMMA=   0.7457
  2.2797  0.9702  0.7154  0.7154  0.6339  0.2671  0.1809  0.2028

 Free energy of the ion-electron system (eV)
  ---------------------------------------------------
  alpha Z        PSCENC =       533.33165426
  Ewald energy   TEWEN  =     -9275.83395968
  -Hartree energ DENC   =     -2953.24748844
  -exchange      EXHF   =         0.00000000
  -V(xc)+E(xc)   XCENC  =        75.15316144
  PAW double counting   =     12853.94266801   -13197.48462926
  entropy T*S    EENTRO =        -0.00177565
  eigenvalues    EBANDS =       631.31496161
  atomic energy  EATOM  =     11229.46195210
  Solvation  Ediel_sol  =         0.00000000
  ---------------------------------------------------
  free energy    TOTEN  =      -103.36345561 eV

  energy without entropy =     -103.36167996  energy(sigma->0) =     -103.36256778


--------------------------------------------------------------------------------------------------------




--------------------------------------- Iteration      1(  14)  ---------------------------------------


    POTLOK:  cpu time    0.1665: real time    0.1800
    SETDIJ:  cpu time    0.0382: real time    0.0382
    EDDIAG:  cpu time    4.1259: real time    4.4565
  RMM-DIIS:  cpu time   11.2264: real time   11.7165
    ORTHCH:  cpu time    0.6137: real time    0.6142
       DOS:  cpu time    0.0038: real time    0.0038
    CHARGE:  cpu time    0.7887: real time    0.7891
    MIXING:  cpu time    0.0024: real time    0.0024
    --------------------------------------------
      LOOP:  cpu time   16.9656: real time   17.8008

 eigenvalue-minimisations  : 14152
 total energy-change (2. order) :-0.2120294E-02  (-0.2757770E-02)
 number of electron     128.0000281 magnetization       0.2529057
 augmentation part       67.7141167 magnetization       0.2029349

 Broyden mixing:
  rms(total) = 0.87641E-01    rms(broyden)= 0.87639E-01
  rms(prec ) = 0.11583E+00
  weight for this iteration     100.00

 eigenvalues of (default mixing * dielectric matrix)
  average eigenvalue GAMMA=   0.7331
  2.2709  0.9820  0.9820  0.6339  0.6339  0.4549  0.2573  0.1806  0.2025

 Free energy of the ion-electron system (eV)
  ---------------------------------------------------
  alpha Z        PSCENC =       533.33165426
  Ewald energy   TEWEN  =     -9275.83395968
  -Hartree energ DENC   =     -2953.35395615
  -exchange      EXHF   =         0.00000000
  -V(xc)+E(xc)   XCENC  =        75.42461150
  PAW double counting   =     12905.54273495   -13249.94057456
  entropy T*S    EENTRO =        -0.00190602
  eigenvalues    EBANDS =       632.00386769
  atomic energy  EATOM  =     11229.46195210
  Solvation  Ediel_sol  =         0.00000000
  ---------------------------------------------------
  free energy    TOTEN  =      -103.36557590 eV

  energy without entropy =     -103.36366988  energy(sigma->0) =     -103.36462289


--------------------------------------------------------------------------------------------------------




--------------------------------------- Iteration      1(  15)  ---------------------------------------


    POTLOK:  cpu time    0.0972: real time    0.0973
    SETDIJ:  cpu time    0.0355: real time    0.0355
    EDDIAG:  cpu time    4.0472: real time    4.3882
  RMM-DIIS:  cpu time   10.5110: real time   11.0791
    ORTHCH:  cpu time    0.6125: real time    0.6129
       DOS:  cpu time    0.0039: real time    0.0039
    CHARGE:  cpu time    0.8355: real time    0.8359
    MIXING:  cpu time    0.0026: real time    0.0026
    --------------------------------------------
      LOOP:  cpu time   16.1453: real time   17.0555

 eigenvalue-minimisations  : 13721
 total energy-change (2. order) : 0.8303473E-03  (-0.9498830E-03)
 number of electron     128.0000281 magnetization       0.2566469
 augmentation part       67.7365899 magnetization       0.2440040

 Broyden mixing:
  rms(total) = 0.54949E-01    rms(broyden)= 0.54949E-01
  rms(prec ) = 0.71300E-01
  weight for this iteration     100.00

 eigenvalues of (default mixing * dielectric matrix)
  average eigenvalue GAMMA=   0.7865
  2.1417  1.7318  0.9783  0.7713  0.6795  0.6156  0.1806  0.2026  0.2548  0.3085

 Free energy of the ion-electron system (eV)
  ---------------------------------------------------
  alpha Z        PSCENC =       533.33165426
  Ewald energy   TEWEN  =     -9275.83395968
  -Hartree energ DENC   =     -2952.88094492
  -exchange      EXHF   =         0.00000000
  -V(xc)+E(xc)   XCENC  =        75.41392453
  PAW double counting   =     12915.04848319   -13259.39635866
  entropy T*S    EENTRO =        -0.00183776
  eigenvalues    EBANDS =       631.49234138
  atomic energy  EATOM  =     11229.46195210
  Solvation  Ediel_sol  =         0.00000000
  ---------------------------------------------------
  free energy    TOTEN  =      -103.36474555 eV

  energy without entropy =     -103.36290780  energy(sigma->0) =     -103.36382667


--------------------------------------------------------------------------------------------------------




--------------------------------------- Iteration      1(  16)  ---------------------------------------


    POTLOK:  cpu time    0.0975: real time    0.0976
    SETDIJ:  cpu time    0.0355: real time    0.0356
    EDDIAG:  cpu time    4.3607: real time    4.3813
  RMM-DIIS:  cpu time   11.4408: real time   12.3860
    ORTHCH:  cpu time    0.7226: real time    0.7991
       DOS:  cpu time    0.0038: real time    0.0038
    CHARGE:  cpu time    0.8388: real time    0.9247
    MIXING:  cpu time    0.0027: real time    0.0027
    --------------------------------------------
      LOOP:  cpu time   17.5024: real time   18.6309

 eigenvalue-minimisations  : 14864
 total energy-change (2. order) : 0.3816177E-03  (-0.2545385E-03)
 number of electron     128.0000281 magnetization       0.2630751
 augmentation part       67.7343822 magnetization       0.2393682

 Broyden mixing:
  rms(total) = 0.23059E-01    rms(broyden)= 0.23058E-01
  rms(prec ) = 0.28117E-01
  weight for this iteration     100.00

 eigenvalues of (default mixing * dielectric matrix)
  average eigenvalue GAMMA=   0.8703
  2.3632  2.2957  1.0014  1.0014  0.6916  0.6916  0.5696  0.1806  0.2028  0.2573
  0.3175

 Free energy of the ion-electron system (eV)
  ---------------------------------------------------
  alpha Z        PSCENC =       533.33165426
  Ewald energy   TEWEN  =     -9275.83395968
  -Hartree energ DENC   =     -2953.05699789
  -exchange      EXHF   =         0.00000000
  -V(xc)+E(xc)   XCENC  =        75.41569612
  PAW double counting   =     12918.96272518   -13263.24382410
  entropy T*S    EENTRO =        -0.00185739
  eigenvalues    EBANDS =       631.60024747
  atomic energy  EATOM  =     11229.46195210
  Solvation  Ediel_sol  =         0.00000000
  ---------------------------------------------------
  free energy    TOTEN  =      -103.36436393 eV

  energy without entropy =     -103.36250654  energy(sigma->0) =     -103.36343524


--------------------------------------------------------------------------------------------------------




--------------------------------------- Iteration      1(  17)  ---------------------------------------


    POTLOK:  cpu time    0.0976: real time    0.0977
    SETDIJ:  cpu time    0.0355: real time    0.0356
    EDDIAG:  cpu time    4.0734: real time    4.3945
  RMM-DIIS:  cpu time   12.5969: real time   13.2698
    ORTHCH:  cpu time    0.9471: real time    0.9937
       DOS:  cpu time    0.0038: real time    0.0038
    CHARGE:  cpu time    0.6791: real time    0.6795
    MIXING:  cpu time    0.0029: real time    0.0029
    --------------------------------------------
      LOOP:  cpu time   18.4364: real time   19.4775

 eigenvalue-minimisations  : 15966
 total energy-change (2. order) :-0.8205114E-05  (-0.6160995E-04)
 number of electron     128.0000281 magnetization       0.2615436
 augmentation part       67.7383140 magnetization       0.2367116

 Broyden mixing:
  rms(total) = 0.63624E-02    rms(broyden)= 0.63617E-02
  rms(prec ) = 0.10729E-01
  weight for this iteration     100.00

 eigenvalues of (default mixing * dielectric matrix)
  average eigenvalue GAMMA=   0.8829
  2.3930  2.3930  1.0223  1.0223  0.7926  0.7926  0.6109  0.6109  0.1806  0.2028
  0.2572  0.3171

 Free energy of the ion-electron system (eV)
  ---------------------------------------------------
  alpha Z        PSCENC =       533.33165426
  Ewald energy   TEWEN  =     -9275.83395968
  -Hartree energ DENC   =     -2952.99944179
  -exchange      EXHF   =         0.00000000
  -V(xc)+E(xc)   XCENC  =        75.47378927
  PAW double counting   =     12925.87242033   -13270.17276944
  entropy T*S    EENTRO =        -0.00186914
  eigenvalues    EBANDS =       631.50385195
  atomic energy  EATOM  =     11229.46195210
  Solvation  Ediel_sol  =         0.00000000
  ---------------------------------------------------
  free energy    TOTEN  =      -103.36437214 eV

  energy without entropy =     -103.36250300  energy(sigma->0) =     -103.36343757


--------------------------------------------------------------------------------------------------------




--------------------------------------- Iteration      1(  18)  ---------------------------------------


    POTLOK:  cpu time    0.4460: real time    0.4481
    SETDIJ:  cpu time    0.0524: real time    0.0524
    EDDIAG:  cpu time    3.9193: real time    4.2499
  RMM-DIIS:  cpu time   10.1993: real time   10.6081
    ORTHCH:  cpu time    0.9672: real time    0.9891
       DOS:  cpu time    0.0037: real time    0.0037
    CHARGE:  cpu time    0.6761: real time    0.6770
    MIXING:  cpu time    0.0033: real time    0.0033
    --------------------------------------------
      LOOP:  cpu time   16.2673: real time   17.0316

 eigenvalue-minimisations  : 12929
 total energy-change (2. order) : 0.2894919E-04  (-0.1055338E-04)
 number of electron     128.0000281 magnetization       0.2621435
 augmentation part       67.7354142 magnetization       0.2371265

 Broyden mixing:
  rms(total) = 0.32638E-02    rms(broyden)= 0.32637E-02
  rms(prec ) = 0.39230E-02
  weight for this iteration     100.00

 eigenvalues of (default mixing * dielectric matrix)
  average eigenvalue GAMMA=   0.9102
  2.4658  2.4658  1.2273  1.2273  0.8127  0.8127  0.6418  0.6418  0.5787  0.1806
  0.2028  0.2571  0.3178

 Free energy of the ion-electron system (eV)
  ---------------------------------------------------
  alpha Z        PSCENC =       533.33165426
  Ewald energy   TEWEN  =     -9275.83395968
  -Hartree energ DENC   =     -2953.09654628
  -exchange      EXHF   =         0.00000000
[...]
     84      12.0077      0.00000


--------------------------------------------------------------------------------------------------------


 soft charge-density along one line, spin component           1
         0         1         2         3         4         5         6         7         8         9
 total charge-density along one line

 soft charge-density along one line, spin component           2
         0         1         2         3         4         5         6         7         8         9
 total charge-density along one line

 pseudopotential strength for first ion, spin component:           1
 -1.617   0.005   0.009   0.005   0.000  -2.254   0.005   0.009
  0.005  -1.621  -0.011  -0.015   0.021   0.005  -2.258  -0.011
  0.009  -0.011  -1.619  -0.011  -0.000   0.009  -0.011  -2.255
  0.005  -0.015  -0.011  -1.621  -0.021   0.005  -0.015  -0.011
  0.000   0.021  -0.000  -0.021  -1.624   0.000   0.020  -0.000
 -2.254   0.005   0.009   0.005   0.000  -2.821   0.005   0.008
  0.005  -2.258  -0.011  -0.015   0.020   0.005  -2.824  -0.010
  0.009  -0.011  -2.255  -0.011  -0.000   0.008  -0.010  -2.822
  0.005  -0.015  -0.011  -2.258  -0.020   0.005  -0.014  -0.010
  0.000   0.020  -0.000  -0.020  -2.260   0.000   0.019  -0.000
  0.001   0.004  -0.001   0.004  -0.000   0.001   0.004  -0.001
  0.001   0.007  -0.002   0.007  -0.000   0.001   0.007  -0.001
  0.002  -0.004  -0.000  -0.002  -0.000   0.002  -0.004  -0.000
 -0.002   0.002  -0.010   0.002   0.000  -0.002   0.001  -0.010
  0.002  -0.002  -0.000  -0.004   0.000   0.002  -0.002  -0.000
  0.002  -0.003  -0.000  -0.002  -0.000   0.002  -0.003  -0.000
 -0.002   0.002  -0.010   0.002   0.000  -0.002   0.002  -0.010
  0.002  -0.002  -0.000  -0.003   0.000   0.002  -0.002  -0.000
 pseudopotential strength for first ion, spin component:           2
 -1.575  -0.007   0.020  -0.007   0.000  -2.213  -0.007   0.019
 -0.007  -1.582   0.009  -0.013  -0.013  -0.007  -2.220   0.008
  0.020   0.009  -1.565   0.009  -0.000   0.019   0.008  -2.204
 -0.007  -0.013   0.009  -1.582   0.013  -0.007  -0.013   0.008
  0.000  -0.013  -0.000   0.013  -1.545   0.000  -0.013  -0.000
 -2.213  -0.007   0.019  -0.007   0.000  -2.782  -0.006   0.019
 -0.007  -2.220   0.008  -0.013  -0.013  -0.006  -2.789   0.008
  0.019   0.008  -2.204   0.008  -0.000   0.019   0.008  -2.773
 -0.007  -0.013   0.008  -2.220   0.013  -0.006  -0.012   0.008
  0.000  -0.013  -0.000   0.013  -2.185   0.000  -0.012  -0.000
  0.003  -0.003   0.003  -0.003  -0.000   0.003  -0.003   0.003
  0.005  -0.005   0.005  -0.005  -0.000   0.005  -0.005   0.005
 -0.002  -0.012   0.001   0.003   0.001  -0.002  -0.011   0.001
  0.003  -0.002  -0.013  -0.002   0.000   0.003  -0.002  -0.013
 -0.002   0.003   0.001  -0.012  -0.001  -0.002   0.003   0.001
 -0.003  -0.013   0.001   0.004   0.002  -0.003  -0.013   0.001
  0.004  -0.003  -0.014  -0.003   0.000   0.004  -0.003  -0.014
 -0.003   0.004   0.001  -0.013  -0.002  -0.003   0.004   0.001
 total augmentation occupancy for first ion, spin component:           1
  2.006   0.027   0.098   0.027   0.000  -0.526  -0.016  -0.071  -0.016  -0.000  -0.106   0.027  -0.011   0.046  -0.011   0.001
  0.027   2.026   0.003   0.080   0.026  -0.016  -0.547  -0.004  -0.082  -0.011   0.002  -0.002   0.023  -0.000   0.042  -0.011
  0.098   0.003   2.717   0.003  -0.000  -0.071  -0.004  -1.032  -0.004   0.000  -0.042   0.005   0.009  -0.086   0.009  -0.001
  0.027   0.080   0.003   2.026  -0.026  -0.016  -0.082  -0.004  -0.547   0.011   0.002  -0.002   0.042  -0.000   0.023  -0.008
  0.000   0.026   0.000  -0.026   2.763   0.000  -0.011  -0.000   0.011  -1.054  -0.000   0.000   0.018   0.000  -0.018  -0.001
 -0.526  -0.016  -0.071  -0.016  -0.000   0.837   0.009   0.044   0.009   0.000   0.066  -0.017   0.010  -0.027   0.010  -0.001
 -0.016  -0.547  -0.004  -0.082  -0.011   0.009   0.853   0.003   0.080   0.004  -0.000   0.002   0.010   0.004  -0.024   0.000
 -0.071  -0.004  -1.032  -0.004   0.000   0.044   0.003   1.107   0.003  -0.000   0.033  -0.005  -0.007   0.082  -0.007   0.001
 -0.016  -0.082  -0.004  -0.547   0.011   0.009   0.080   0.003   0.853  -0.004  -0.000   0.002  -0.024   0.004   0.010   0.005
 -0.000  -0.011   0.000   0.011  -1.054   0.000   0.004  -0.000  -0.004   1.105   0.000   0.000  -0.015   0.000   0.015   0.001
 -0.106   0.002  -0.042   0.002   0.000   0.066  -0.000   0.033  -0.000   0.000   2.130  -0.284   0.008   0.067   0.008  -0.001
  0.027  -0.002   0.005  -0.002  -0.000  -0.017   0.002  -0.005   0.002   0.000  -0.284   0.048  -0.001   0.000  -0.001   0.000
 -0.011   0.023   0.009   0.042   0.018   0.010   0.010  -0.007  -0.024  -0.015   0.008  -0.001   0.257  -0.001   0.003  -0.027
  0.046  -0.000  -0.086  -0.000   0.000  -0.027   0.004   0.082   0.004   0.000   0.067   0.000  -0.001   0.263  -0.001   0.000
 -0.011   0.042   0.009   0.023  -0.018   0.010  -0.024  -0.007   0.010   0.015   0.008  -0.001   0.003  -0.001   0.257  -0.002
  0.001  -0.011  -0.001  -0.008  -0.001  -0.001   0.000   0.001   0.005   0.001  -0.001   0.000  -0.027   0.000  -0.002   0.003
 -0.008   0.001  -0.005   0.001  -0.000   0.005  -0.001  -0.009  -0.001  -0.000  -0.008  -0.000   0.000  -0.027   0.000  -0.000
  0.001  -0.008  -0.001  -0.011   0.001  -0.001   0.005   0.001   0.000  -0.001  -0.001   0.000  -0.002   0.000  -0.027   0.000
 total augmentation occupancy for first ion, spin component:           2
  0.131   0.085   0.116   0.085   0.000  -0.096  -0.090  -0.085  -0.090   0.000   0.030   0.001  -0.040   0.087  -0.040   0.002
  0.085   0.056   0.058   0.024  -0.153  -0.090  -0.036  -0.021  -0.016   0.081  -0.064  -0.000  -0.075  -0.033   0.086   0.003
  0.116   0.058   0.111   0.058   0.000  -0.085  -0.021  -0.064  -0.021   0.000   0.039   0.004   0.002   0.028   0.002  -0.001
  0.085   0.024   0.058   0.056   0.153  -0.090  -0.016  -0.021  -0.036  -0.081  -0.064  -0.000   0.086  -0.033  -0.075  -0.003
  0.000  -0.153   0.000   0.153   0.225   0.000   0.081   0.000  -0.081  -0.128  -0.000   0.000  -0.011   0.000   0.011   0.000
 -0.096  -0.090  -0.085  -0.090   0.000   0.066   0.084   0.061   0.084  -0.000  -0.024   0.002   0.027  -0.062   0.027  -0.003
 -0.090  -0.036  -0.021  -0.016   0.081   0.084   0.020  -0.002   0.009  -0.033   0.042  -0.006   0.047   0.020  -0.062  -0.005
 -0.085  -0.021  -0.064  -0.021   0.000   0.061  -0.002   0.031  -0.002   0.000  -0.026   0.000   0.002  -0.031   0.002   0.000
 -0.090  -0.016  -0.021  -0.036  -0.081   0.084   0.009  -0.002   0.020   0.033   0.042  -0.006  -0.062   0.020   0.047   0.005
  0.000   0.081   0.000  -0.081  -0.128  -0.000  -0.033   0.000   0.033   0.061   0.000   0.000   0.013   0.000  -0.013  -0.000
  0.030  -0.064   0.039  -0.064  -0.000  -0.024   0.042  -0.026   0.042   0.000   0.001   0.000  -0.000  -0.010  -0.000  -0.001
  0.001  -0.000   0.004  -0.000   0.000   0.002  -0.006   0.000  -0.006   0.000   0.000  -0.000  -0.003  -0.004  -0.003   0.000
 -0.040  -0.075   0.002   0.086  -0.011   0.027   0.047   0.002  -0.062   0.013  -0.000  -0.003   0.006   0.007  -0.005  -0.000
  0.087  -0.033   0.028  -0.033   0.000  -0.062   0.020  -0.031   0.020   0.000  -0.010  -0.004   0.007  -0.003   0.007  -0.001
 -0.040   0.086   0.002  -0.075   0.011   0.027  -0.062   0.002   0.047  -0.013  -0.000  -0.003  -0.005   0.007   0.006   0.000
  0.002   0.003  -0.001  -0.003   0.000  -0.003  -0.005   0.000   0.005  -0.000  -0.001   0.000  -0.000  -0.001   0.000   0.000
 -0.003   0.001  -0.000   0.001  -0.000   0.005  -0.002   0.001  -0.002   0.000  -0.002   0.001  -0.001   0.000  -0.001   0.000
  0.002  -0.003  -0.001   0.003  -0.000  -0.003   0.005   0.000  -0.005   0.000  -0.001   0.000   0.000  -0.001  -0.000  -0.000


------------------------ aborting loop because EDIFF is reached ----------------------------------------





 total charge     

# of ion       s       p       d       tot
------------------------------------------
    1        0.475   0.429   8.392   9.296
    2        0.472   0.427   8.378   9.277
    3        0.472   0.428   8.379   9.279
    4        0.474   0.427   8.380   9.281
    5        0.474   0.427   8.380   9.281
    6        0.472   0.428   8.379   9.279
    7        0.472   0.427   8.378   9.277
    8        0.475   0.429   8.392   9.296
    9        0.312   0.289   4.929   5.530
   10        0.311   0.291   4.946   5.548
   11        0.338   0.347   4.941   5.626
   12        0.351   0.345   4.982   5.678
   13        0.348   0.357   4.974   5.679
   14        0.350   0.344   4.901   5.595
   15        1.237   1.702   0.289   3.229
   16        1.252   1.762   0.309   3.323
--------------------------------------------------
tot          8.285   8.861  97.328 114.475



 magnetization (x)

# of ion       s       p       d       tot
------------------------------------------
    1       -0.002   0.005   0.052   0.055
    2        0.000   0.005   0.055   0.060
    3        0.002   0.006   0.060   0.068
    4        0.002   0.008   0.060   0.070
    5        0.002   0.008   0.060   0.070
    6        0.002   0.006   0.060   0.068
    7        0.000   0.005   0.055   0.060
    8       -0.002   0.005   0.052   0.055
    9       -0.041  -0.024  -3.569  -3.634
   10       -0.040  -0.024  -3.609  -3.673
   11       -0.038  -0.044  -3.289  -3.372
   12        0.035   0.036   3.463   3.533
   13        0.020   0.023   3.289   3.332
   14        0.035   0.023   3.464   3.523
   15        0.007   0.122  -0.006   0.122
   16        0.017  -0.016  -0.000   0.001
--------------------------------------------------
tot         -0.001   0.143   0.196   0.339

    CHARGE:  cpu time    0.7302: real time    0.7308
    FORLOC:  cpu time    0.0072: real time    0.0072
    FORNL :  cpu time    5.2223: real time    5.4111
    STRESS:  cpu time   15.0693: real time   15.8605
    FORCOR:  cpu time    0.0999: real time    0.1000
    FORHAR:  cpu time    0.0161: real time    0.0161
    MIXING:  cpu time    0.0020: real time    0.0020
    OFIELD:  cpu time    0.0000: real time    0.0000

  FORCE on cell =-STRESS in cart. coord.  units (eV):
  Direction    XX          YY          ZZ          XY          YZ          ZX
  --------------------------------------------------------------------------------------
  Alpha Z   533.33165   533.33165   533.33165
  Ewald   -2954.62176 -2954.62176 -3365.57461    -0.00000    -0.00000    -0.00000
  Hartree  1111.70645  1111.70645   730.57575    -0.00000    -0.00000    -0.00000
  E(xc)    -670.75793  -670.75793  -670.69946    -0.00000    -0.00000    -0.00000
  Local    -516.96550  -516.96550   278.99881     0.00000    -0.00000    -0.00000
  n-local  -149.56384  -146.54390  -147.63776    -0.07676    -0.54768     0.35456
  augment  1579.87013  1579.87013  1577.23898     0.00000     0.00000    -0.00000
  Kinetic  1056.83911  1072.96694  1062.04332     0.16655     1.05866     1.24630
  Fock        0.00000     0.00000     0.00000     0.00000     0.00000     0.00000
  -------------------------------------------------------------------------------------
  Total      -0.58781    -0.58781    -1.72332     0.00000     0.00000     0.00000
  in kB      -4.46374    -4.46374   -13.08659     0.00000     0.00000     0.00000
  external pressure =       -7.34 kB  Pullay stress =        0.00 kB


 VOLUME and BASIS-vectors are now :
 -----------------------------------------------------------------------------
  energy-cutoff  :      550.00
  volume of cell :      210.98
      direct lattice vectors                 reciprocal lattice vectors
     5.953193498  0.000000000  0.000000000     0.167977070  0.000000000  0.000000000
     0.000000000  5.953193498  0.000000000     0.000000000  0.167977070  0.000000000
     0.000000000  0.000000000  5.953193498     0.000000000  0.000000000  0.167977070

  length of vectors
     5.953193498  5.953193498  5.953193498     0.167977070  0.167977070  0.167977070


 FORCES acting on ions
    electron-ion (+dipol)            ewald-force                    non-local-force                 convergence-correction
 -----------------------------------------------------------------------------------------------
   0.131E+02 0.131E+02 0.189E+03   -.132E+02 -.132E+02 -.187E+03   0.742E-01 0.742E-01 -.256E+01   -.105E-01 -.105E-01 0.546E-02
   -.131E+02 0.131E+02 0.189E+03   0.132E+02 -.132E+02 -.187E+03   -.742E-01 0.742E-01 -.256E+01   0.105E-01 -.105E-01 0.546E-02
   0.131E+02 -.131E+02 0.189E+03   -.132E+02 0.132E+02 -.187E+03   0.742E-01 -.742E-01 -.256E+01   -.105E-01 0.105E-01 0.546E-02
   -.131E+02 -.131E+02 0.189E+03   0.132E+02 0.132E+02 -.187E+03   -.742E-01 -.742E-01 -.256E+01   0.105E-01 0.105E-01 0.546E-02
   0.131E+02 0.131E+02 -.189E+03   -.132E+02 -.132E+02 0.187E+03   0.742E-01 0.742E-01 0.256E+01   -.105E-01 -.105E-01 -.546E-02
   -.131E+02 0.131E+02 -.189E+03   0.132E+02 -.132E+02 0.187E+03   -.742E-01 0.742E-01 0.256E+01   0.105E-01 -.105E-01 -.546E-02
   0.131E+02 -.131E+02 -.189E+03   -.132E+02 0.132E+02 0.187E+03   0.742E-01 -.742E-01 0.256E+01   -.105E-01 0.105E-01 -.546E-02
   -.131E+02 -.131E+02 -.189E+03   0.132E+02 0.132E+02 0.187E+03   -.742E-01 -.742E-01 0.256E+01   0.105E-01 0.105E-01 -.546E-02
   0.223E-12 0.551E-13 -.598E-12   -.221E-13 0.195E-13 -.161E-13   0.000E+00 0.000E+00 0.000E+00   -.989E-12 -.773E-14 0.573E-13
   0.132E-13 0.221E-12 -.553E-13   0.391E-13 0.147E-13 -.587E-13   0.000E+00 0.000E+00 0.000E+00   -.767E-13 -.119E-12 0.208E-12
   0.201E-13 0.217E-13 0.188E-12   0.832E-13 -.442E-13 0.316E-13   0.000E+00 0.000E+00 0.000E+00   0.527E-13 -.644E-13 -.108E-12
   0.231E-12 0.200E-13 0.164E-11   0.174E-12 -.584E-13 0.279E-13   0.000E+00 0.000E+00 0.000E+00   -.489E-13 -.504E-13 -.130E-12
   0.225E-12 0.230E-12 0.973E-12   0.673E-15 -.545E-13 0.317E-13   0.000E+00 0.000E+00 0.000E+00   0.105E-11 -.493E-13 -.258E-12
   0.200E-13 0.224E-12 0.180E-12   0.711E-13 0.116E-12 -.573E-13   0.000E+00 0.000E+00 0.000E+00   -.102E-11 -.606E-13 -.243E-12
   0.301E-13 0.357E-14 -.189E-13   -.352E-13 -.114E-13 -.809E-14   0.000E+00 0.000E+00 0.000E+00   0.209E-12 0.857E-14 0.370E-13
   0.176E-13 -.481E-12 0.247E-13   -.231E-13 -.210E-13 -.809E-14   0.000E+00 0.000E+00 0.000E+00   0.184E-14 -.208E-13 0.657E-13
 -----------------------------------------------------------------------------------------------
   0.185E-10 0.220E-10 -.416E-10   0.659E-14 -.324E-13 -.256E-12   0.000E+00 0.139E-16 0.222E-14   -.477E-12 0.919E-12 -.173E-11


 POSITION                                       TOTAL-FORCE (eV/Angst)
 -----------------------------------------------------------------------------------
      1.50367      1.50367      1.61171        -0.000372     -0.000372      0.001783
      4.44953      1.50367      1.61171         0.000372     -0.000372      0.001783
      1.50367      4.44953      1.61171        -0.000372      0.000372      0.001783
      4.44953      4.44953      1.61171         0.000372      0.000372      0.001783
      1.50367      1.50367      4.34149        -0.000372     -0.000372     -0.001783
      4.44953      1.50367      4.34149         0.000372     -0.000372     -0.001783
      1.50367      4.44953      4.34149        -0.000372      0.000372     -0.001783
      4.44953      4.44953      4.34149         0.000372      0.000372     -0.001783
      2.97660      0.00000      0.00000         0.000000      0.000000      0.000000
      0.00000      2.97660      0.00000         0.000000      0.000000      0.000000
      0.00000      0.00000      2.97660         0.000000      0.000000      0.000000
      2.97660      0.00000      2.97660         0.000000      0.000000      0.000000
      2.97660      2.97660      2.97660         0.000000      0.000000      0.000000
      0.00000      2.97660      2.97660         0.000000      0.000000      0.000000
      0.00000      0.00000      0.00000         0.000000      0.000000      0.000000
      2.97660      2.97660      0.00000         0.000000      0.000000      0.000000
 -----------------------------------------------------------------------------------
    total drift:                                0.000000      0.000000     -0.000000


--------------------------------------------------------------------------------------------------------



  FREE ENERGIE OF THE ION-ELECTRON SYSTEM (eV)
  ---------------------------------------------------
  free  energy   TOTEN  =      -103.36534833 eV

  energy  without entropy=     -103.36348551  energy(sigma->0) =     -103.36441692

 d Force = 0.4260733E-03[ 0.298E-04, 0.822E-03]  d Energy = 0.5459127E-03-0.120E-03
 d Force =-0.7509208E+00[-0.807E+00,-0.695E+00]  d Ewald  =-0.7509167E+00-0.407E-05


--------------------------------------------------------------------------------------------------------


    POTLOK:  cpu time    0.1340: real time    0.1341


--------------------------------------------------------------------------------------------------------




--------------------------------------------------------------------------------------------------------


  
 reached required accuracy - stopping structural energy minimisation
     LOOP+:  cpu time  147.5843: real time  154.0133
    4ORBIT:  cpu time    0.0000: real time    0.0000



 total charge     

# of ion       s       p       d       tot
------------------------------------------
    1        0.475   0.429   8.392   9.296
    2        0.472   0.427   8.378   9.277
    3        0.472   0.428   8.379   9.279
    4        0.474   0.427   8.380   9.281
    5        0.474   0.427   8.380   9.281
    6        0.472   0.428   8.379   9.279
    7        0.472   0.427   8.378   9.277
    8        0.475   0.429   8.392   9.296
    9        0.312   0.289   4.929   5.530
   10        0.311   0.291   4.946   5.548
   11        0.338   0.347   4.941   5.626
   12        0.351   0.345   4.982   5.678
   13        0.348   0.357   4.974   5.679
   14        0.350   0.344   4.901   5.595
   15        1.237   1.702   0.289   3.229
   16        1.252   1.762   0.309   3.323
--------------------------------------------------
tot          8.285   8.861  97.328 114.475



 magnetization (x)

# of ion       s       p       d       tot
------------------------------------------
    1       -0.002   0.005   0.052   0.055
    2        0.000   0.005   0.055   0.060
    3        0.002   0.006   0.060   0.068
    4        0.002   0.008   0.060   0.070
    5        0.002   0.008   0.060   0.070
    6        0.002   0.006   0.060   0.068
    7        0.000   0.005   0.055   0.060
    8       -0.002   0.005   0.052   0.055
    9       -0.041  -0.024  -3.569  -3.634
   10       -0.040  -0.024  -3.609  -3.673
   11       -0.038  -0.044  -3.289  -3.372
   12        0.035   0.036   3.463   3.533
   13        0.020   0.023   3.289   3.332
   14        0.035   0.023   3.464   3.523
   15        0.007   0.122  -0.006   0.122
   16        0.017  -0.016  -0.000   0.001
--------------------------------------------------
tot         -0.001   0.143   0.196   0.339


 total amount of memory used by VASP MPI-rank0   103314. kBytes
=======================================================================

   base      :      30000. kBytes
   nonlr-proj:       6807. kBytes
   fftplans  :       1269. kBytes
   grid      :       6573. kBytes
   one-center:        497. kBytes
   wavefun   :      58168. kBytes

  
  
 General timing and accounting informations for this job:
 ========================================================
  
                  Total CPU time used (sec):      693.888
                            User time (sec):      660.918
                          System time (sec):       32.970
                         Elapsed time (sec):      722.040
  
                   Maximum memory used (kb):      140648.
                   Average memory used (kb):           0.
  
                          Minor page faults:     15269122
                          Major page faults:           17
                 Voluntary context switches:         2455
