 vasp.5.4.4.18Apr17-6-g9f103f2a35 (build May 21 2018 20:56:50) complex           
 executed on             LinuxGNU date 2021.10.15  15:49:33
 running on   12 total cores
 distrk:  each k-point on   12 cores,    1 groups
 distr:  one band on NCORES_PER_BAND=   1 cores,   12 groups


--------------------------------------------------------------------------------------------------------


 INCAR:
 POTCAR:    PAW_PBE Ni 02Aug2007                  
 POTCAR:    PAW_PBE Mn 06Sep2000                  
 POTCAR:    PAW_PBE In 08Apr2002                  

 ----------------------------------------------------------------------------- 
|                                                                             |
|           W    W    AA    RRRRR   N    N  II  N    N   GGGG   !!!           |
|           W    W   A  A   R    R  NN   N  II  NN   N  G    G  !!!           |
|           W    W  A    A  R    R  N N  N  II  N N  N  G       !!!           |
|           W WW W  AAAAAA  RRRRR   N  N N  II  N  N N  G  GGG   !            |
|           WW  WW  A    A  R   R   N   NN  II  N   NN  G    G                |
|           W    W  A    A  R    R  N    N  II  N    N   GGGG   !!!           |
|                                                                             |
|      For optimal performance we recommend to set                            |
|        NCORE= 4 - approx SQRT( number of cores)                             |
|      NCORE specifies how many cores store one orbital (NPAR=cpu/NCORE).     |
|      This setting can  greatly improve the performance of VASP for DFT.     |
|      The default,   NCORE=1            might be grossly inefficient         |
|      on modern multi-core architectures or massively parallel machines.     |
|      Do your own testing !!!!                                               |
|      Unfortunately you need to use the default for GW and RPA calculations. |
|      (for HF NCORE is supported but not extensively tested yet)             |
|                                                                             |
 ----------------------------------------------------------------------------- 

 POTCAR:    PAW_PBE Ni 02Aug2007                  
   VRHFIN =Ni:                                                                  
   LEXCH  = PE                                                                  
   EATOM  =  1077.6739 eV,   79.2068 Ry                                         
                                                                                
   TITEL  = PAW_PBE Ni 02Aug2007                                                
   LULTRA =        F    use ultrasoft PP ?                                      
   IUNSCR =        1    unscreen: 0-lin 1-nonlin 2-no                           
   RPACOR =    2.000    partial core radius                                     
   POMASS =   58.690; ZVAL   =   10.000    mass and valenz                      
   RCORE  =    2.300    outmost cutoff radius                                   
   RWIGS  =    2.430; RWIGS  =    1.286    wigner-seitz radius (au A)           
   ENMAX  =  269.532; ENMIN  =  202.149 eV                                      
   RCLOC  =    1.201    cutoff for local pot                                    
   LCOR   =        T    correct aug charges                                     
   LPAW   =        T    paw PP                                                  
   EAUG   =  544.565                                                            
   DEXC   =    0.000                                                            
   RMAX   =    2.357    core radius for proj-oper                               
   RAUG   =    1.300    factor for augmentation sphere                          
   RDEP   =    2.390    radius for radial grids                                 
   RDEPT  =    1.838    core radius for aug-charge                              
                                                                                
   Atomic configuration                                                         
    9 entries                                                                   
     n  l   j            E        occ.                                          
     1  0  0.50     -8206.4253   2.0000                                         
     2  0  0.50      -976.1748   2.0000                                         
     2  1  1.50      -839.0571   6.0000                                         
     3  0  0.50      -105.9991   2.0000                                         
     3  1  1.50       -66.4603   6.0000                                         
     3  2  2.50        -4.6458   9.0000                                         
     4  0  0.50        -4.4926   1.0000                                         
     4  1  1.50        -4.0817   0.0000                                         
     4  3  2.50        -1.3606   0.0000                                         
   Description                                                                  
     l       E           TYP  RCUT    TYP  RCUT                                 
     2     -4.6457903     23  2.300                                             
     2     -6.0063729     23  2.300                                             
     0     -4.4925590     23  2.300                                             
     0      5.0102601     23  2.300                                             
     1     -2.7211652     23  2.300                                             
     1     16.5183231     23  2.300                                             
  local pseudopotential read in
  partial core-charges read in
  partial kinetic energy density read in
  atomic valenz-charges read in
  non local Contribution for L=           2  read in
    real space projection operators read in
  non local Contribution for L=           2  read in
    real space projection operators read in
  non local Contribution for L=           0  read in
    real space projection operators read in
  non local Contribution for L=           0  read in
    real space projection operators read in
  non local Contribution for L=           1  read in
    real space projection operators read in
  non local Contribution for L=           1  read in
    real space projection operators read in
    PAW grid and wavefunctions read in

   number of l-projection  operators is LMAX  =           6
   number of lm-projection operators is LMMAX =          18

 POTCAR:    PAW_PBE Mn 06Sep2000                  
   VRHFIN =Mn: d6 s1                                                            
   LEXCH  = PE                                                                  
   EATOM  =   416.7541 eV,   30.6306 Ry                                         
                                                                                
   TITEL  = PAW_PBE Mn 06Sep2000                                                
   LULTRA =        F    use ultrasoft PP ?                                      
   IUNSCR =        1    unscreen: 0-lin 1-nonlin 2-no                           
   RPACOR =    2.000    partial core radius                                     
   POMASS =   54.938; ZVAL   =    7.000    mass and valenz                      
   RCORE  =    2.300    outmost cutoff radius                                   
   RWIGS  =    2.500; RWIGS  =    1.323    wigner-seitz radius (au A)           
   ENMAX  =  269.864; ENMIN  =  202.398 eV                                      
   RCLOC  =    1.725    cutoff for local pot                                    
   LCOR   =        T    correct aug charges                                     
   LPAW   =        T    paw PP                                                  
   EAUG   =  500.711                                                            
   DEXC   =    0.000                                                            
   RMAX   =    2.343    core radius for proj-oper                               
   RAUG   =    1.300    factor for augmentation sphere                          
   RDEP   =    2.338    radius for radial grids                                 
   RDEPT  =    1.911    core radius for aug-charge                              
                                                                                
   Atomic configuration                                                         
    9 entries                                                                   
     n  l   j            E        occ.                                          
     1  0  0.50     -6424.8288   2.0000                                         
     2  0  0.50      -739.1154   2.0000                                         
     2  1  1.50      -625.3949   6.0000                                         
     3  0  0.50       -81.6100   2.0000                                         
     3  1  1.50       -50.4667   6.0000                                         
     3  2  2.50        -3.3745   6.0000                                         
     4  0  0.50        -4.1331   1.0000                                         
     4  1  0.50        -4.0817   0.0000                                         
     4  3  2.50        -1.3606   0.0000                                         
   Description                                                                  
     l       E           TYP  RCUT    TYP  RCUT                                 
     2     -3.3744664     23  2.300                                             
     2     -4.7350490     23  2.300                                             
     0     -4.1331408     23  2.300                                             
     0      7.6656614     23  2.300                                             
     1     -2.7211652     23  2.300                                             
     1     20.4087390     23  2.300                                             
  local pseudopotential read in
  partial core-charges read in
  partial kinetic energy density read in
  atomic valenz-charges read in
  non local Contribution for L=           2  read in
    real space projection operators read in
  non local Contribution for L=           2  read in
    real space projection operators read in
  non local Contribution for L=           0  read in
    real space projection operators read in
  non local Contribution for L=           0  read in
    real space projection operators read in
  non local Contribution for L=           1  read in
    real space projection operators read in
  non local Contribution for L=           1  read in
    real space projection operators read in
    PAW grid and wavefunctions read in

   number of l-projection  operators is LMAX  =           6
   number of lm-projection operators is LMMAX =          18

 POTCAR:    PAW_PBE In 08Apr2002                  
   VRHFIN =In: s2p1                                                             
   LEXCH  = PE                                                                  
   EATOM  =    53.7908 eV,    3.9535 Ry                                         
                                                                                
   TITEL  = PAW_PBE In 08Apr2002                                                
   LULTRA =        F    use ultrasoft PP ?                                      
   IUNSCR =        1    unscreen: 0-lin 1-nonlin 2-no                           
   RPACOR =    2.400    partial core radius                                     
   POMASS =  114.820; ZVAL   =    3.000    mass and valenz                      
   RCORE  =    3.100    outmost cutoff radius                                   
   RWIGS  =    3.170; RWIGS  =    1.677    wigner-seitz radius (au A)           
   ENMAX  =   95.934; ENMIN  =   71.951 eV                                      
   ICORE  =        3    local potential                                         
   LCOR   =        T    correct aug charges                                     
   LPAW   =        T    paw PP                                                  
   EAUG   =  237.125                                                            
   DEXC   =    0.000                                                            
   RMAX   =    3.168    core radius for proj-oper                               
   RAUG   =    1.300    factor for augmentation sphere                          
   RDEP   =    3.187    radius for radial grids                                 
   RDEPT  =    2.711    core radius for aug-charge                              
                                                                                
   Atomic configuration                                                         
   13 entries                                                                   
     n  l   j            E        occ.                                          
     1  0  0.50    -27747.9169   2.0000                                         
     2  0  0.50     -4154.4438   2.0000                                         
     2  1  1.50     -3728.4305   6.0000                                         
     3  0  0.50      -788.3680   2.0000                                         
     3  1  1.50      -648.9215   6.0000                                         
     3  2  2.50      -432.5893  10.0000                                         
     4  0  0.50      -119.6363   2.0000                                         
     4  1  1.50       -78.1086   6.0000                                         
     4  2  2.50       -18.6227  10.0000                                         
     5  0  0.50        -8.2107   2.0000                                         
     5  1  0.50        -2.5185   1.0000                                         
     5  2  2.50        -1.3606   0.0000                                         
     4  3  2.50        -2.7212   0.0000                                         
   Description                                                                  
     l       E           TYP  RCUT    TYP  RCUT                                 
     0     -8.2107306     23  3.100                                             
     0     -6.1485975     23  3.100                                             
     1     -2.5184867     23  3.100                                             
     1      3.2427302     23  3.100                                             
     2     -1.3605826     23  3.100                                             
     3     -1.3605826     23  3.100                                             
  local pseudopotential read in
  partial core-charges read in
  partial kinetic energy density read in
  atomic valenz-charges read in
  non local Contribution for L=           0  read in
    real space projection operators read in
  non local Contribution for L=           0  read in
    real space projection operators read in
  non local Contribution for L=           1  read in
    real space projection operators read in
  non local Contribution for L=           1  read in
    real space projection operators read in
  non local Contribution for L=           2  read in
    real space projection operators read in
    PAW grid and wavefunctions read in

   number of l-projection  operators is LMAX  =           5
   number of lm-projection operators is LMMAX =          13

 Optimization of the real space projectors (new method)

 maximal supplied QI-value         = 16.25
 optimisation between [QCUT,QGAM] = [ 11.86, 23.89] = [ 39.41,159.82] Ry 
 Optimized for a Real-space Cutoff    1.33 Angstroem

   l    n(q)    QCUT    max X(q) W(low)/X(q) W(high)/X(q)  e(spline) 
   2      9    11.864    60.317    0.21E-03    0.51E-03    0.25E-06
   2      9    11.864    55.921    0.21E-03    0.51E-03    0.26E-06
   0      9    11.864    51.690    0.22E-03    0.30E-04    0.17E-06
   0      9    11.864    30.015    0.20E-03    0.28E-04    0.15E-06
   1      9    11.864    18.849    0.76E-04    0.33E-03    0.17E-06
   1      9    11.864    14.624    0.60E-04    0.28E-03    0.15E-06
 Optimization of the real space projectors (new method)

 maximal supplied QI-value         = 16.25
 optimisation between [QCUT,QGAM] = [ 11.86, 23.89] = [ 39.41,159.82] Ry 
 Optimized for a Real-space Cutoff    1.36 Angstroem

   l    n(q)    QCUT    max X(q) W(low)/X(q) W(high)/X(q)  e(spline) 
   2      9    11.864   110.144    0.49E-03    0.50E-03    0.21E-06
   2      9    11.864   103.200    0.49E-03    0.51E-03    0.22E-06
   0     10    11.864    68.437    0.12E-03    0.41E-04    0.21E-06
   0     10    11.864    33.971    0.11E-03    0.36E-04    0.19E-06
   1      9    11.864    17.065    0.24E-03    0.26E-03    0.93E-07
   1      9    11.864    12.540    0.19E-03    0.20E-03    0.80E-07
 Optimization of the real space projectors (new method)

 maximal supplied QI-value         = 12.09
 optimisation between [QCUT,QGAM] = [ 11.97, 23.95] = [ 40.14,160.58] Ry 
 Optimized for a Real-space Cutoff    1.63 Angstroem

   l    n(q)    QCUT    max X(q) W(low)/X(q) W(high)/X(q)  e(spline) 
   0     12    11.973   106.980    0.33E-03    0.16E-03    0.25E-05
   0     12    11.973    81.086    0.37E-03    0.18E-03    0.28E-05
   1     11    11.973    53.097    0.22E-03    0.42E-03    0.40E-05
   1     11    11.973    32.621    0.20E-03    0.40E-03    0.37E-05
   2     11    11.973     8.820    0.30E-03    0.17E-03    0.41E-06
  PAW_PBE Ni 02Aug2007                  :
 energy of atom  1       EATOM=-1077.6739
 kinetic energy error for atom=    0.0027 (will be added to EATOM!!)
  PAW_PBE Mn 06Sep2000                  :
 energy of atom  2       EATOM= -416.7541
 kinetic energy error for atom=    0.0022 (will be added to EATOM!!)
  PAW_PBE In 08Apr2002                  :
 energy of atom  3       EATOM=  -53.7908
 kinetic energy error for atom=    0.0000 (will be added to EATOM!!)


 POSCAR: Ni2MnIn                                 
  positions in direct lattice
  velocities in cartesian coordinates
 exchange correlation table for  LEXCH =        8
   RHO(1)=    0.500       N(1)  =     2000
   RHO(2)=  100.500       N(2)  =     4000



--------------------------------------------------------------------------------------------------------


 ion  position               nearest neighbor table
   1  0.250  0.250  0.250-   9 2.58  10 2.58  11 2.58  12 2.58  13 2.58  14 2.58  15 2.58  16 2.58
                             5 2.98   2 2.98   3 2.98   5 2.98   3 2.98   2 2.98
   2  0.750  0.250  0.250-   9 2.58  10 2.58  11 2.58  12 2.58  13 2.58  14 2.58  15 2.58  16 2.58
                             6 2.98   1 2.98   4 2.98   6 2.98   4 2.98   1 2.98
   3  0.250  0.750  0.250-   9 2.58  10 2.58  11 2.58  12 2.58  13 2.58  14 2.58  15 2.58  16 2.58
                             7 2.98   1 2.98   4 2.98   7 2.98   1 2.98   4 2.98
   4  0.750  0.750  0.250-   9 2.58  10 2.58  11 2.58  12 2.58  13 2.58  14 2.58  15 2.58  16 2.58
                             8 2.98   2 2.98   3 2.98   8 2.98   2 2.98   3 2.98
   5  0.250  0.250  0.750-   9 2.58  10 2.58  11 2.58  12 2.58  13 2.58  14 2.58  15 2.58  16 2.58
                             7 2.98   1 2.98   6 2.98   1 2.98   7 2.98   6 2.98
   6  0.750  0.250  0.750-   9 2.58  10 2.58  11 2.58  12 2.58  13 2.58  14 2.58  15 2.58  16 2.58
                             8 2.98   2 2.98   5 2.98   2 2.98   8 2.98   5 2.98
   7  0.250  0.750  0.750-   9 2.58  10 2.58  11 2.58  12 2.58  13 2.58  14 2.58  15 2.58  16 2.58
                             8 2.98   3 2.98   5 2.98   3 2.98   5 2.98   8 2.98
   8  0.750  0.750  0.750-   9 2.58  10 2.58  11 2.58  12 2.58  13 2.58  14 2.58  15 2.58  16 2.58
                             7 2.98   4 2.98   6 2.98   4 2.98   6 2.98   7 2.98
   9  0.500  0.000  0.000-   1 2.58   2 2.58   3 2.58   4 2.58   5 2.58   6 2.58   7 2.58   8 2.58
                            10 2.98  13 2.98  15 2.98  13 2.98  10 2.98  15 2.98
  10  0.500  0.500  0.000-   1 2.58   2 2.58   3 2.58   4 2.58   5 2.58   6 2.58   7 2.58   8 2.58
                             9 2.98  11 2.98  16 2.98  16 2.98   9 2.98  11 2.98
  11  0.000  0.500  0.000-   1 2.58   2 2.58   3 2.58   4 2.58   5 2.58   6 2.58   7 2.58   8 2.58
                            10 2.98  14 2.98  15 2.98  14 2.98  15 2.98  10 2.98
  12  0.000  0.000  0.500-   1 2.58   2 2.58   3 2.58   4 2.58   5 2.58   6 2.58   7 2.58   8 2.58
                            13 2.98  14 2.98  15 2.98  15 2.98  14 2.98  13 2.98
  13  0.500  0.000  0.500-   1 2.58   2 2.58   3 2.58   4 2.58   5 2.58   6 2.58   7 2.58   8 2.58
                             9 2.98  12 2.98  16 2.98   9 2.98  16 2.98  12 2.98
  14  0.000  0.500  0.500-   1 2.58   2 2.58   3 2.58   4 2.58   5 2.58   6 2.58   7 2.58   8 2.58
                            11 2.98  12 2.98  16 2.98  11 2.98  12 2.98  16 2.98
  15  0.000  0.000  0.000-   1 2.58   2 2.58   3 2.58   4 2.58   5 2.58   6 2.58   7 2.58   8 2.58
                             9 2.98  11 2.98  12 2.98  12 2.98  11 2.98   9 2.98
  16  0.500  0.500  0.500-   1 2.58   2 2.58   3 2.58   4 2.58   5 2.58   6 2.58   7 2.58   8 2.58
                            10 2.98  13 2.98  14 2.98  10 2.98  13 2.98  14 2.98

  LATTYP: Found a simple cubic cell.
 ALAT       =     5.9666021750
  
  Lattice vectors:
  
 A1 = (   5.9666021750,   0.0000000000,   0.0000000000)
 A2 = (   0.0000000000,   5.9666021750,   0.0000000000)
 A3 = (   0.0000000000,   0.0000000000,   5.9666021750)


Analysis of symmetry for initial positions (statically):
=====================================================================
 Subroutine PRICEL returns following result:
 
  LATTYP: Found a body centered cubic cell.
 ALAT       =     5.9666021750
  
  Lattice vectors:
  
 A1 = (   2.9833010875,   2.9833010875,   2.9833010875)
 A2 = (   2.9833010875,  -2.9833010875,  -2.9833010875)
 A3 = (  -2.9833010875,   2.9833010875,  -2.9833010875)
 
   2 primitive cells build up your supercell.
 

 Routine SETGRP: Setting up the symmetry group for a 
 simple cubic supercell.


 Subroutine GETGRP returns: Found 48 space group operations
 (whereof 48 operations were pure point group operations)
 out of a pool of 48 trial point group operations.


The static configuration has the point symmetry O_h .


Analysis of symmetry for dynamics (positions and initial velocities):
=====================================================================
 Subroutine PRICEL returns following result:
 
  LATTYP: Found a body centered cubic cell.
 ALAT       =     5.9666021750
  
  Lattice vectors:
  
 A1 = (   2.9833010875,   2.9833010875,   2.9833010875)
 A2 = (   2.9833010875,  -2.9833010875,  -2.9833010875)
 A3 = (  -2.9833010875,   2.9833010875,  -2.9833010875)
 
   2 primitive cells build up your supercell.
 

 Routine SETGRP: Setting up the symmetry group for a 
 simple cubic supercell.


 Subroutine GETGRP returns: Found 48 space group operations
 (whereof 48 operations were pure point group operations)
 out of a pool of 48 trial point group operations.


The dynamic configuration has the point symmetry O_h .


Analysis of structural, dynamic, and magnetic symmetry:
=====================================================================
 Subroutine PRICEL returns:
 Original cell was already a primitive cell.
 

 Routine SETGRP: Setting up the symmetry group for a 
 simple cubic supercell.


 Subroutine GETGRP returns: Found 16 space group operations
 (whereof  8 operations were pure point group operations)
 out of a pool of 48 trial point group operations.


The magnetic configuration has the point symmetry D_2h.
 The point group associated with its full space group is D_4h.


 Subroutine INISYM returns: Found 16 space group operations
 (whereof  8 operations are pure point group operations),
 and found     1 'primitive' translations



 KPOINTS: k-points                                

Automatic generation of k-mesh.
Space group operators:
 irot       det(A)        alpha          n_x          n_y          n_z        tau_x        tau_y        tau_z
    1     1.000000     0.000000     1.000000     0.000000     0.000000     0.000000     0.000000     0.000000
    2    -1.000000     0.000000     1.000000     0.000000     0.000000     0.000000     0.000000     0.000000
    3     1.000000   180.000000     0.000000     0.000000     1.000000     0.000000     0.000000     0.000000
    4    -1.000000   180.000000     0.000000     0.000000     1.000000     0.000000     0.000000     0.000000
    5     1.000000   180.000000     1.000000     0.000000     0.000000     0.000000     0.000000     0.000000
    6    -1.000000   180.000000     1.000000     0.000000     0.000000     0.000000     0.000000     0.000000
    7     1.000000   180.000000     0.000000     1.000000     0.000000     0.000000     0.000000     0.000000
    8    -1.000000   180.000000     0.000000     1.000000     0.000000     0.000000     0.000000     0.000000
    9     1.000000    90.000000     0.000000     1.000000     0.000000     0.500000     0.500000     0.500000
   10    -1.000000    90.000000     0.000000     1.000000     0.000000     0.500000     0.500000     0.500000
   11     1.000000   180.000000     0.707107     0.000000     0.707107     0.500000     0.500000     0.500000
   12    -1.000000   180.000000     0.707107     0.000000     0.707107     0.500000     0.500000     0.500000
   13     1.000000    90.000000     0.000000    -1.000000     0.000000     0.500000     0.500000     0.500000
   14    -1.000000    90.000000     0.000000    -1.000000     0.000000     0.500000     0.500000     0.500000
   15     1.000000   180.000000     0.707107     0.000000    -0.707107     0.500000     0.500000     0.500000
   16    -1.000000   180.000000     0.707107     0.000000    -0.707107     0.500000     0.500000     0.500000
 
 Subroutine IBZKPT returns following result:
 ===========================================
 
 Found     40 irreducible k-points:
 
 Following reciprocal coordinates:
            Coordinates               Weight
  0.000000  0.000000  0.000000      1.000000
  0.142857  0.000000  0.000000      4.000000
  0.285714  0.000000  0.000000      4.000000
  0.428571  0.000000  0.000000      4.000000
  0.000000  0.142857  0.000000      2.000000
  0.142857  0.142857  0.000000      8.000000
  0.285714  0.142857  0.000000      8.000000
  0.428571  0.142857  0.000000      8.000000
  0.000000  0.285714  0.000000      2.000000
  0.142857  0.285714  0.000000      8.000000
  0.285714  0.285714  0.000000      8.000000
  0.428571  0.285714  0.000000      8.000000
  0.000000  0.428571  0.000000      2.000000
  0.142857  0.428571  0.000000      8.000000
  0.285714  0.428571  0.000000      8.000000
  0.428571  0.428571  0.000000      8.000000
  0.142857  0.000000  0.142857      4.000000
  0.285714  0.000000  0.142857      8.000000
  0.428571  0.000000  0.142857      8.000000
  0.142857  0.142857  0.142857      8.000000
  0.285714  0.142857  0.142857     16.000000
  0.428571  0.142857  0.142857     16.000000
  0.142857  0.285714  0.142857      8.000000
  0.285714  0.285714  0.142857     16.000000
  0.428571  0.285714  0.142857     16.000000
  0.142857  0.428571  0.142857      8.000000
  0.285714  0.428571  0.142857     16.000000
  0.428571  0.428571  0.142857     16.000000
  0.285714  0.000000  0.285714      4.000000
  0.428571  0.000000  0.285714      8.000000
  0.285714  0.142857  0.285714      8.000000
  0.428571  0.142857  0.285714     16.000000
  0.285714  0.285714  0.285714      8.000000
  0.428571  0.285714  0.285714     16.000000
  0.285714  0.428571  0.285714      8.000000
  0.428571  0.428571  0.285714     16.000000
  0.428571  0.000000  0.428571      4.000000
  0.428571  0.142857  0.428571      8.000000
  0.428571  0.285714  0.428571      8.000000
  0.428571  0.428571  0.428571      8.000000
 
 Following cartesian coordinates:
            Coordinates               Weight
  0.000000  0.000000  0.000000      1.000000
  0.137911  0.000000  0.000000      4.000000
  0.275821  0.000000  0.000000      4.000000
  0.413732  0.000000  0.000000      4.000000
  0.000000  0.137911  0.000000      2.000000
  0.137911  0.137911  0.000000      8.000000
  0.275821  0.137911  0.000000      8.000000
  0.413732  0.137911  0.000000      8.000000
  0.000000  0.275821  0.000000      2.000000
  0.137911  0.275821  0.000000      8.000000
  0.275821  0.275821  0.000000      8.000000
  0.413732  0.275821  0.000000      8.000000
  0.000000  0.413732  0.000000      2.000000
  0.137911  0.413732  0.000000      8.000000
  0.275821  0.413732  0.000000      8.000000
  0.413732  0.413732  0.000000      8.000000
  0.137911  0.000000  0.137911      4.000000
  0.275821  0.000000  0.137911      8.000000
  0.413732  0.000000  0.137911      8.000000
  0.137911  0.137911  0.137911      8.000000
  0.275821  0.137911  0.137911     16.000000
  0.413732  0.137911  0.137911     16.000000
  0.137911  0.275821  0.137911      8.000000
  0.275821  0.275821  0.137911     16.000000
  0.413732  0.275821  0.137911     16.000000
  0.137911  0.413732  0.137911      8.000000
  0.275821  0.413732  0.137911     16.000000
  0.413732  0.413732  0.137911     16.000000
  0.275821  0.000000  0.275821      4.000000
  0.413732  0.000000  0.275821      8.000000
  0.275821  0.137911  0.275821      8.000000
  0.413732  0.137911  0.275821     16.000000
  0.275821  0.275821  0.275821      8.000000
  0.413732  0.275821  0.275821     16.000000
  0.275821  0.413732  0.275821      8.000000
  0.413732  0.413732  0.275821     16.000000
  0.413732  0.000000  0.413732      4.000000
  0.413732  0.137911  0.413732      8.000000
  0.413732  0.275821  0.413732      8.000000
  0.413732  0.413732  0.413732      8.000000
 


--------------------------------------------------------------------------------------------------------




 Dimension of arrays:
   k-points           NKPTS =     40   k-points in BZ     NKDIM =     40   number of bands    NBANDS=     84
   number of dos      NEDOS =    301   number of ions     NIONS =     16
   non local maximal  LDIM  =      6   non local SUM 2l+1 LMDIM =     18
   total plane-waves  NPLWV =  46656
   max r-space proj   IRMAX =   4032   max aug-charges    IRDMAX=  24975
   dimension x,y,z NGX =    36 NGY =   36 NGZ =   36
   dimension x,y,z NGXF=    72 NGYF=   72 NGZF=   72
   support grid    NGXF=    72 NGYF=   72 NGZF=   72
   ions per type =               8   6   2
   NGX,Y,Z   is equivalent  to a cutoff of  10.03, 10.03, 10.03 a.u.
   NGXF,Y,Z  is equivalent  to a cutoff of  20.06, 20.06, 20.06 a.u.

 SYSTEM =  Testrun for NiMnIn                      
 POSCAR =  Ni2MnIn                                 

 Startparameter for this run:
   NWRITE =      2    write-flag & timer
   PREC   = normal    normal or accurate (medium, high low for compatibility)
   ISTART =      0    job   : 0-new  1-cont  2-samecut
   ICHARG =      2    charge: 1-file 2-atom 10-const
   ISPIN  =      2    spin polarized calculation?
   LNONCOLLINEAR =      F non collinear calculations
   LSORBIT =      F    spin-orbit coupling
   INIWAV =      1    electr: 0-lowe 1-rand  2-diag
   LASPH  =      F    aspherical Exc in radial PAW
   METAGGA=      F    non-selfconsistent MetaGGA calc.

 Electronic Relaxation 1
   ENCUT  =  550.0 eV  40.42 Ry    6.36 a.u.  11.41 11.41 11.41*2*pi/ulx,y,z
   ENINI  =  550.0     initial cutoff
   ENAUG  =  544.6 eV  augmentation charge cutoff
   NELM   =     60;   NELMIN=  2; NELMDL= -5     # of ELM steps 
   EDIFF  = 0.1E-04   stopping-criterion for ELM
   LREAL  =      T    real-space projection
   NLSPLINE    = F    spline interpolate recip. space projectors
   LCOMPAT=      F    compatible to vasp.4.4
   GGA_COMPAT  = T    GGA compatible to vasp.4.4-vasp.4.6
   LMAXPAW     = -100 max onsite density
   LMAXMIX     =    2 max onsite mixed and CHGCAR
   VOSKOWN=      0    Vosko Wilk Nusair interpolation
   ROPT   =   -0.00050  -0.00050  -0.00050
 Ionic relaxation
   EDIFFG = -.1E-01   stopping-criterion for IOM
   NSW    =   1000    number of steps for IOM
   NBLOCK =      1;   KBLOCK =   1000    inner block; outer block 
   IBRION =      2    ionic relax: 0-MD 1-quasi-New 2-CG
   NFREE  =      1    steps in history (QN), initial steepest desc. (CG)
   ISIF   =      2    stress and relaxation
   IWAVPR =     11    prediction:  0-non 1-charg 2-wave 3-comb
   ISYM   =      2    0-nonsym 1-usesym 2-fastsym
   LCORR  =      T    Harris-Foulkes like correction to forces

   POTIM  = 0.5000    time-step for ionic-motion
   TEIN   =    0.0    initial temperature
   TEBEG  =    0.0;   TEEND  =   0.0 temperature during run
   SMASS  =  -3.00    Nose mass-parameter (am)
   estimated Nose-frequenzy (Omega)   =  0.10E-29 period in steps =****** mass=  -0.814E-27a.u.
   SCALEE = 1.0000    scale energy and forces
   NPACO  =    256;   APACO  = 16.0  distance and # of slots for P.C.
   PSTRESS=    0.0 pullay stress

  Mass of Ions in am
   POMASS =  58.69 54.94114.82
  Ionic Valenz
   ZVAL   =  10.00  7.00  3.00
  Atomic Wigner-Seitz radii
   RWIGS  =  -1.00 -1.00 -1.00
  virtual crystal weights 
   VCA    =   1.00  1.00  1.00
   NELECT =     128.0000    total number of electrons
   NUPDOWN=      -1.0000    fix difference up-down

 DOS related values:
   EMIN   =  10.00;   EMAX   =-10.00  energy-range for DOS
   EFERMI =   0.00
   ISMEAR =     0;   SIGMA  =   0.02  broadening in eV -4-tet -1-fermi 0-gaus

 Electronic relaxation 2 (details)
   IALGO  =     68    algorithm
   LDIAG  =      T    sub-space diagonalisation (order eigenvalues)
   LSUBROT=      F    optimize rotation matrix (better conditioning)
   TURBO    =      0    0=normal 1=particle mesh
   IRESTART =      0    0=no restart 2=restart with 2 vectors
   NREBOOT  =      0    no. of reboots
   NMIN     =      0    reboot dimension
   EREF     =   0.00    reference energy to select bands
   IMIX   =      4    mixing-type and parameters
     AMIX     =   0.40;   BMIX     =  1.00
     AMIX_MAG =   1.60;   BMIX_MAG =  1.00
     AMIN     =   0.10
     WC   =   100.;   INIMIX=   1;  MIXPRE=   1;  MAXMIX= -45

 Intra band minimization:
   WEIMIN = 0.0010     energy-eigenvalue tresh-hold
   EBREAK =  0.30E-07  absolut break condition
   DEPER  =   0.30     relativ break condition  

   TIME   =   0.40     timestep for ELM

  volume/ion in A,a.u.               =      13.28        89.59
  Fermi-wavevector in a.u.,A,eV,Ry     =   1.382774  2.613063 26.015193  1.912063
  Thomas-Fermi vector in A             =   2.507434

 Write flags
   LWAVE        =      F    write WAVECAR
   LDOWNSAMPLE  =      F    k-point downsampling of WAVECAR
   LCHARG       =      T    write CHGCAR
   LVTOT        =      F    write LOCPOT, total local potential
   LVHAR        =      F    write LOCPOT, Hartree potential only
   LELF         =      F    write electronic localiz. function (ELF)
   LORBIT       =     11    0 simple, 1 ext, 2 COOP (PROOUT), +10 PAW based schemes


 Dipole corrections
   LMONO  =      F    monopole corrections only (constant potential shift)
   LDIPOL =      F    correct potential (dipole corrections)
   IDIPOL =      0    1-x, 2-y, 3-z, 4-all directions 
   EPSILON=  1.0000000 bulk dielectric constant

 Exchange correlation treatment:
   GGA     =    --    GGA type
   LEXCH   =     8    internal setting for exchange type
   VOSKOWN=      0    Vosko Wilk Nusair interpolation
   LHFCALC =     F    Hartree Fock is set to
   LHFONE  =     F    Hartree Fock one center treatment
   AEXX    =    0.0000 exact exchange contribution

 Linear response parameters
   LEPSILON=     F    determine dielectric tensor
   LRPA    =     F    only Hartree local field effects (RPA)
   LNABLA  =     F    use nabla operator in PAW spheres
   LVEL    =     F    velocity operator in full k-point grid
   LINTERFAST=   F  fast interpolation
   KINTER  =     0    interpolate to denser k-point grid
   CSHIFT  =0.1000    complex shift for real part using Kramers Kronig
   OMEGAMAX=  -1.0    maximum frequency
   DEG_THRESHOLD= 0.2000000E-02 threshold for treating states as degnerate
   RTIME   =   -0.100 relaxation time in fs
  (WPLASMAI=    0.000 imaginary part of plasma frequency in eV, 0.658/RTIME)
   DFIELD  = 0.0000000 0.0000000 0.0000000 field for delta impulse in time

 Orbital magnetization related:
   ORBITALMAG=     F  switch on orbital magnetization
   LCHIMAG   =     F  perturbation theory with respect to B field
   DQ        =  0.001000  dq finite difference perturbation B field
   LLRAUG    =     F  two centre corrections for induced B field



--------------------------------------------------------------------------------------------------------


 conjugate gradient relaxation of ions
 charge density and potential will be updated during run
 spin polarized calculation
 RMM-DIIS sequential band-by-band and
  variant of blocked Davidson during initial phase
 perform sub-space diagonalisation
    before iterative eigenvector-optimisation
 modified Broyden-mixing scheme, WC =      100.0
 initial mixing is a Kerker type mixing with AMIX =  0.4000 and BMIX =      1.0000
 Hartree-type preconditioning will be used
 using additional bands           20
 real space projection scheme for non local part
 use partial core corrections
 calculate Harris-corrections to forces   (improved forces if not selfconsistent)
 use gradient corrections 
 use of overlap-Matrix (Vanderbilt PP)
 Gauss-broadening in eV      SIGMA  =   0.02


--------------------------------------------------------------------------------------------------------


  energy-cutoff  :      550.00
  volume of cell :      212.41
      direct lattice vectors                 reciprocal lattice vectors
     5.966602175  0.000000000  0.000000000     0.167599577  0.000000000  0.000000000
     0.000000000  5.966602175  0.000000000     0.000000000  0.167599577  0.000000000
     0.000000000  0.000000000  5.966602175     0.000000000  0.000000000  0.167599577

  length of vectors
     5.966602175  5.966602175  5.966602175     0.167599577  0.167599577  0.167599577



 k-points in units of 2pi/SCALE and weight: k-points                                
   0.00000000  0.00000000  0.00000000       0.003
   0.13791051  0.00000000  0.00000000       0.012
   0.27582102  0.00000000  0.00000000       0.012
   0.41373153  0.00000000  0.00000000       0.012
   0.00000000  0.13791051  0.00000000       0.006
   0.13791051  0.13791051  0.00000000       0.023
   0.27582102  0.13791051  0.00000000       0.023
   0.41373153  0.13791051  0.00000000       0.023
   0.00000000  0.27582102  0.00000000       0.006
   0.13791051  0.27582102  0.00000000       0.023
   0.27582102  0.27582102  0.00000000       0.023
   0.41373153  0.27582102  0.00000000       0.023
   0.00000000  0.41373153  0.00000000       0.006
   0.13791051  0.41373153  0.00000000       0.023
   0.27582102  0.41373153  0.00000000       0.023
   0.41373153  0.41373153  0.00000000       0.023
   0.13791051  0.00000000  0.13791051       0.012
   0.27582102  0.00000000  0.13791051       0.023
   0.41373153  0.00000000  0.13791051       0.023
   0.13791051  0.13791051  0.13791051       0.023
   0.27582102  0.13791051  0.13791051       0.047
   0.41373153  0.13791051  0.13791051       0.047
   0.13791051  0.27582102  0.13791051       0.023
   0.27582102  0.27582102  0.13791051       0.047
   0.41373153  0.27582102  0.13791051       0.047
   0.13791051  0.41373153  0.13791051       0.023
   0.27582102  0.41373153  0.13791051       0.047
   0.41373153  0.41373153  0.13791051       0.047
   0.27582102  0.00000000  0.27582102       0.012
   0.41373153  0.00000000  0.27582102       0.023
   0.27582102  0.13791051  0.27582102       0.023
   0.41373153  0.13791051  0.27582102       0.047
   0.27582102  0.27582102  0.27582102       0.023
   0.41373153  0.27582102  0.27582102       0.047
   0.27582102  0.41373153  0.27582102       0.023
   0.41373153  0.41373153  0.27582102       0.047
   0.41373153  0.00000000  0.41373153       0.012
   0.41373153  0.13791051  0.41373153       0.023
   0.41373153  0.27582102  0.41373153       0.023
   0.41373153  0.41373153  0.41373153       0.023

 k-points in reciprocal lattice and weights: k-points                                
   0.00000000  0.00000000  0.00000000       0.003
   0.14285714  0.00000000  0.00000000       0.012
   0.28571429  0.00000000  0.00000000       0.012
   0.42857143  0.00000000  0.00000000       0.012
   0.00000000  0.14285714  0.00000000       0.006
   0.14285714  0.14285714  0.00000000       0.023
   0.28571429  0.14285714  0.00000000       0.023
   0.42857143  0.14285714  0.00000000       0.023
   0.00000000  0.28571429  0.00000000       0.006
   0.14285714  0.28571429  0.00000000       0.023
   0.28571429  0.28571429  0.00000000       0.023
   0.42857143  0.28571429  0.00000000       0.023
   0.00000000  0.42857143  0.00000000       0.006
   0.14285714  0.42857143  0.00000000       0.023
   0.28571429  0.42857143  0.00000000       0.023
   0.42857143  0.42857143  0.00000000       0.023
   0.14285714  0.00000000  0.14285714       0.012
   0.28571429  0.00000000  0.14285714       0.023
   0.42857143  0.00000000  0.14285714       0.023
   0.14285714  0.14285714  0.14285714       0.023
   0.28571429  0.14285714  0.14285714       0.047
   0.42857143  0.14285714  0.14285714       0.047
   0.14285714  0.28571429  0.14285714       0.023
   0.28571429  0.28571429  0.14285714       0.047
   0.42857143  0.28571429  0.14285714       0.047
   0.14285714  0.42857143  0.14285714       0.023
   0.28571429  0.42857143  0.14285714       0.047
   0.42857143  0.42857143  0.14285714       0.047
   0.28571429  0.00000000  0.28571429       0.012
   0.42857143  0.00000000  0.28571429       0.023
   0.28571429  0.14285714  0.28571429       0.023
   0.42857143  0.14285714  0.28571429       0.047
   0.28571429  0.28571429  0.28571429       0.023
   0.42857143  0.28571429  0.28571429       0.047
   0.28571429  0.42857143  0.28571429       0.023
   0.42857143  0.42857143  0.28571429       0.047
   0.42857143  0.00000000  0.42857143       0.012
   0.42857143  0.14285714  0.42857143       0.023
   0.42857143  0.28571429  0.42857143       0.023
   0.42857143  0.42857143  0.42857143       0.023

 position of ions in fractional coordinates (direct lattice) 
   0.25000000  0.25000000  0.25000000
   0.75000000  0.25000000  0.25000000
   0.25000000  0.75000000  0.25000000
   0.75000000  0.75000000  0.25000000
   0.25000000  0.25000000  0.75000000
   0.75000000  0.25000000  0.75000000
   0.25000000  0.75000000  0.75000000
   0.75000000  0.75000000  0.75000000
   0.50000000  0.00000000  0.00000000
   0.50000000  0.50000000  0.00000000
   0.00000000  0.50000000  0.00000000
   0.00000000  0.00000000  0.50000000
   0.50000000  0.00000000  0.50000000
   0.00000000  0.50000000  0.50000000
   0.00000000  0.00000000  0.00000000
   0.50000000  0.50000000  0.50000000

 position of ions in cartesian coordinates  (Angst):
   1.49165054  1.49165054  1.49165054
   4.47495163  1.49165054  1.49165054
   1.49165054  4.47495163  1.49165054
   4.47495163  4.47495163  1.49165054
   1.49165054  1.49165054  4.47495163
   4.47495163  1.49165054  4.47495163
   1.49165054  4.47495163  4.47495163
   4.47495163  4.47495163  4.47495163
   2.98330109  0.00000000  0.00000000
   2.98330109  2.98330109  0.00000000
   0.00000000  2.98330109  0.00000000
   0.00000000  0.00000000  2.98330109
   2.98330109  0.00000000  2.98330109
   0.00000000  2.98330109  2.98330109
   0.00000000  0.00000000  0.00000000
   2.98330109  2.98330109  2.98330109



--------------------------------------------------------------------------------------------------------


 k-point  1 :   0.0000 0.0000 0.0000  plane waves:    6235
 k-point  2 :   0.1429 0.0000 0.0000  plane waves:    6227
 k-point  3 :   0.2857 0.0000 0.0000  plane waves:    6227
 k-point  4 :   0.4286 0.0000 0.0000  plane waves:    6222
 k-point  5 :   0.0000 0.1429 0.0000  plane waves:    6227
 k-point  6 :   0.1429 0.1429 0.0000  plane waves:    6226
 k-point  7 :   0.2857 0.1429 0.0000  plane waves:    6226
 k-point  8 :   0.4286 0.1429 0.0000  plane waves:    6222
 k-point  9 :   0.0000 0.2857 0.0000  plane waves:    6227
 k-point 10 :   0.1429 0.2857 0.0000  plane waves:    6226
 k-point 11 :   0.2857 0.2857 0.0000  plane waves:    6234
 k-point 12 :   0.4286 0.2857 0.0000  plane waves:    6217
 k-point 13 :   0.0000 0.4286 0.0000  plane waves:    6222
 k-point 14 :   0.1429 0.4286 0.0000  plane waves:    6222
 k-point 15 :   0.2857 0.4286 0.0000  plane waves:    6217
 k-point 16 :   0.4286 0.4286 0.0000  plane waves:    6220
 k-point 17 :   0.1429 0.0000 0.1429  plane waves:    6226
 k-point 18 :   0.2857 0.0000 0.1429  plane waves:    6226
 k-point 19 :   0.4286 0.0000 0.1429  plane waves:    6222
 k-point 20 :   0.1429 0.1429 0.1429  plane waves:    6235
 k-point 21 :   0.2857 0.1429 0.1429  plane waves:    6228
 k-point 22 :   0.4286 0.1429 0.1429  plane waves:    6231
 k-point 23 :   0.1429 0.2857 0.1429  plane waves:    6228
 k-point 24 :   0.2857 0.2857 0.1429  plane waves:    6214
 k-point 25 :   0.4286 0.2857 0.1429  plane waves:    6227
 k-point 26 :   0.1429 0.4286 0.1429  plane waves:    6231
 k-point 27 :   0.2857 0.4286 0.1429  plane waves:    6227
 k-point 28 :   0.4286 0.4286 0.1429  plane waves:    6217
 k-point 29 :   0.2857 0.0000 0.2857  plane waves:    6234
 k-point 30 :   0.4286 0.0000 0.2857  plane waves:    6217
 k-point 31 :   0.2857 0.1429 0.2857  plane waves:    6214
 k-point 32 :   0.4286 0.1429 0.2857  plane waves:    6227
 k-point 33 :   0.2857 0.2857 0.2857  plane waves:    6217
 k-point 34 :   0.4286 0.2857 0.2857  plane waves:    6220
 k-point 35 :   0.2857 0.4286 0.2857  plane waves:    6220
 k-point 36 :   0.4286 0.4286 0.2857  plane waves:    6208
 k-point 37 :   0.4286 0.0000 0.4286  plane waves:    6220
 k-point 38 :   0.4286 0.1429 0.4286  plane waves:    6217
 k-point 39 :   0.4286 0.2857 0.4286  plane waves:    6208
 k-point 40 :   0.4286 0.4286 0.4286  plane waves:    6179

 maximum and minimum number of plane-waves per node :      6235     6179

 maximum number of plane-waves:      6235
 maximum index in each direction: 
   IXMAX=   11   IYMAX=   11   IZMAX=   11
   IXMIN=  -11   IYMIN=  -11   IZMIN=  -11


 serial   3D FFT for wavefunctions
 parallel 3D FFT for charge:
    minimum data exchange during FFTs selected (reduces bandwidth)


 total amount of memory used by VASP MPI-rank0   103664. kBytes
=======================================================================

   base      :      30000. kBytes
   nonlr-proj:       6835. kBytes
   fftplans  :       1269. kBytes
   grid      :       6573. kBytes
   one-center:        497. kBytes
   wavefun   :      58490. kBytes

     INWAV:  cpu time    0.0000: real time    0.0000
 Broyden mixing: mesh for mixing (old mesh)
   NGX = 23   NGY = 23   NGZ = 23
  (NGX  = 72   NGY  = 72   NGZ  = 72)
  gives a total of  12167 points

 initial charge density was supplied:
 charge density of overlapping atoms calculated
 number of electron     128.0000000 magnetization       8.8000000
 keeping initial charge density in first step


--------------------------------------------------------------------------------------------------------


 Maximum index for non-local projection operator         3887
 Maximum index for augmentation-charges         2111 (set IRDMAX)


--------------------------------------------------------------------------------------------------------


 First call to EWALD:  gamma=   0.297
 Maximum number of real-space cells 3x 3x 3
 Maximum number of reciprocal cells 3x 3x 3

    FEWALD:  cpu time    0.0021: real time    0.0021


--------------------------------------- Iteration      1(   1)  ---------------------------------------


    POTLOK:  cpu time    0.0993: real time    0.1010
    SETDIJ:  cpu time    0.0359: real time    0.0359
     EDDAV:  cpu time   23.4427: real time   23.4664
       DOS:  cpu time    0.0034: real time    0.0034
    --------------------------------------------
      LOOP:  cpu time   23.5812: real time   23.6067

 eigenvalue-minimisations  : 13440
 total energy-change (2. order) : 0.1068728E+04  (-0.5419848E+04)
 number of electron     128.0000000 magnetization       8.8000000
 augmentation part      128.0000000 magnetization       8.8000000

 Free energy of the ion-electron system (eV)
  ---------------------------------------------------
  alpha Z        PSCENC =       529.74407833
  Ewald energy   TEWEN  =     -9393.83377442
  -Hartree energ DENC   =     -3028.99731511
  -exchange      EXHF   =         0.00000000
  -V(xc)+E(xc)   XCENC  =        78.00041603
  PAW double counting   =     10320.96726947   -10647.99417394
  entropy T*S    EENTRO =        -0.00149853
  eigenvalues    EBANDS =      1981.38095294
  atomic energy  EATOM  =     11229.46195210
  Solvation  Ediel_sol  =         0.00000000
  ---------------------------------------------------
  free energy    TOTEN  =      1068.72790688 eV

  energy without entropy =     1068.72940541  energy(sigma->0) =     1068.72865614


--------------------------------------------------------------------------------------------------------




--------------------------------------- Iteration      1(   2)  ---------------------------------------


     EDDAV:  cpu time   24.3855: real time   24.4219
       DOS:  cpu time    0.0037: real time    0.0038
    --------------------------------------------
      LOOP:  cpu time   24.3891: real time   24.4257

 eigenvalue-minimisations  : 13440
 total energy-change (2. order) :-0.1066448E+04  (-0.1033570E+04)
 number of electron     128.0000000 magnetization       8.8000000
 augmentation part      128.0000000 magnetization       8.8000000

 Free energy of the ion-electron system (eV)
  ---------------------------------------------------
  alpha Z        PSCENC =       529.74407833
  Ewald energy   TEWEN  =     -9393.83377442
  -Hartree energ DENC   =     -3028.99731511
  -exchange      EXHF   =         0.00000000
  -V(xc)+E(xc)   XCENC  =        78.00041603
  PAW double counting   =     10320.96726947   -10647.99417394
  entropy T*S    EENTRO =        -0.00263580
  eigenvalues    EBANDS =       914.93445578
  atomic energy  EATOM  =     11229.46195210
  Solvation  Ediel_sol  =         0.00000000
  ---------------------------------------------------
  free energy    TOTEN  =         2.28027245 eV

  energy without entropy =        2.28290825  energy(sigma->0) =        2.28159035


--------------------------------------------------------------------------------------------------------




--------------------------------------- Iteration      1(   3)  ---------------------------------------


     EDDAV:  cpu time   25.7759: real time   25.8020
       DOS:  cpu time    0.0037: real time    0.0039
    --------------------------------------------
      LOOP:  cpu time   25.7796: real time   25.8058

 eigenvalue-minimisations  : 15120
 total energy-change (2. order) :-0.1116260E+03  (-0.1001008E+03)
 number of electron     128.0000000 magnetization       8.8000000
 augmentation part      128.0000000 magnetization       8.8000000

 Free energy of the ion-electron system (eV)
  ---------------------------------------------------
  alpha Z        PSCENC =       529.74407833
  Ewald energy   TEWEN  =     -9393.83377442
  -Hartree energ DENC   =     -3028.99731511
  -exchange      EXHF   =         0.00000000
  -V(xc)+E(xc)   XCENC  =        78.00041603
  PAW double counting   =     10320.96726947   -10647.99417394
  entropy T*S    EENTRO =        -0.00329914
  eigenvalues    EBANDS =       803.30911518
  atomic energy  EATOM  =     11229.46195210
  Solvation  Ediel_sol  =         0.00000000
  ---------------------------------------------------
  free energy    TOTEN  =      -109.34573150 eV

  energy without entropy =     -109.34243235  energy(sigma->0) =     -109.34408192


--------------------------------------------------------------------------------------------------------




--------------------------------------- Iteration      1(   4)  ---------------------------------------


     EDDAV:  cpu time   32.7834: real time   32.8153
       DOS:  cpu time    0.0037: real time    0.0037
    --------------------------------------------
      LOOP:  cpu time   32.7871: real time   32.8191

 eigenvalue-minimisations  : 20136
 total energy-change (2. order) :-0.6733939E+01  (-0.6353127E+01)
 number of electron     128.0000000 magnetization       8.8000000
 augmentation part      128.0000000 magnetization       8.8000000

 Free energy of the ion-electron system (eV)
  ---------------------------------------------------
  alpha Z        PSCENC =       529.74407833
  Ewald energy   TEWEN  =     -9393.83377442
  -Hartree energ DENC   =     -3028.99731511
  -exchange      EXHF   =         0.00000000
  -V(xc)+E(xc)   XCENC  =        78.00041603
  PAW double counting   =     10320.96726947   -10647.99417394
  entropy T*S    EENTRO =        -0.00289591
  eigenvalues    EBANDS =       796.57477268
  atomic energy  EATOM  =     11229.46195210
  Solvation  Ediel_sol  =         0.00000000
  ---------------------------------------------------
  free energy    TOTEN  =      -116.07967077 eV

  energy without entropy =     -116.07677486  energy(sigma->0) =     -116.07822281


--------------------------------------------------------------------------------------------------------




--------------------------------------- Iteration      1(   5)  ---------------------------------------


     EDDAV:  cpu time   32.0555: real time   32.1040
       DOS:  cpu time    0.0034: real time    0.0034
    CHARGE:  cpu time    0.7130: real time    0.7137
    MIXING:  cpu time    0.0015: real time    0.0015
    --------------------------------------------
      LOOP:  cpu time   32.7734: real time   32.8226

 eigenvalue-minimisations  : 19680
 total energy-change (2. order) :-0.2264311E+00  (-0.2254606E+00)
 number of electron     127.9999521 magnetization       7.5461953
 augmentation part       60.6212888 magnetization       4.7870577

 Broyden mixing:
  rms(total) = 0.34133E+01    rms(broyden)= 0.34132E+01
  rms(prec ) = 0.53622E+01
  weight for this iteration     100.00

 Free energy of the ion-electron system (eV)
  ---------------------------------------------------
  alpha Z        PSCENC =       529.74407833
  Ewald energy   TEWEN  =     -9393.83377442
  -Hartree energ DENC   =     -3028.99731511
  -exchange      EXHF   =         0.00000000
  -V(xc)+E(xc)   XCENC  =        78.00041603
  PAW double counting   =     10320.96726947   -10647.99417394
  entropy T*S    EENTRO =        -0.00287782
  eigenvalues    EBANDS =       796.34832351
  atomic energy  EATOM  =     11229.46195210
  Solvation  Ediel_sol  =         0.00000000
  ---------------------------------------------------
  free energy    TOTEN  =      -116.30610185 eV

  energy without entropy =     -116.30322403  energy(sigma->0) =     -116.30466294


--------------------------------------------------------------------------------------------------------




--------------------------------------- Iteration      1(   6)  ---------------------------------------


    POTLOK:  cpu time    0.1090: real time    0.1159
    SETDIJ:  cpu time    0.0377: real time    0.0377
    EDDIAG:  cpu time    3.3516: real time    3.3560
  RMM-DIIS:  cpu time   10.6008: real time   10.6141
    ORTHCH:  cpu time    0.6369: real time    0.6377
       DOS:  cpu time    0.0039: real time    0.0039
    CHARGE:  cpu time    0.7109: real time    0.7117
    MIXING:  cpu time    0.0016: real time    0.0016
    --------------------------------------------
      LOOP:  cpu time   15.4525: real time   15.4788

 eigenvalue-minimisations  : 13440
 total energy-change (2. order) : 0.4156044E+01  (-0.1794426E+02)
 number of electron     127.9999683 magnetization       6.8902266
 augmentation part       69.3872826 magnetization       5.9671025

 Broyden mixing:
  rms(total) = 0.53491E+01    rms(broyden)= 0.53489E+01
  rms(prec ) = 0.76350E+01
  weight for this iteration     100.00

 eigenvalues of (default mixing * dielectric matrix)
  average eigenvalue GAMMA=   0.1863
  0.1863

 Free energy of the ion-electron system (eV)
  ---------------------------------------------------
  alpha Z        PSCENC =       529.74407833
  Ewald energy   TEWEN  =     -9393.83377442
  -Hartree energ DENC   =     -2797.88163725
  -exchange      EXHF   =         0.00000000
  -V(xc)+E(xc)   XCENC  =        66.10627956
  PAW double counting   =     11117.25176282   -11411.03020952
  entropy T*S    EENTRO =        -0.00530013
  eigenvalues    EBANDS =       548.03679019
  atomic energy  EATOM  =     11229.46195210
  Solvation  Ediel_sol  =         0.00000000
  ---------------------------------------------------
  free energy    TOTEN  =      -112.15005831 eV

  energy without entropy =     -112.14475818  energy(sigma->0) =     -112.14740824


--------------------------------------------------------------------------------------------------------




--------------------------------------- Iteration      1(   7)  ---------------------------------------


    POTLOK:  cpu time    0.0982: real time    0.0983
    SETDIJ:  cpu time    0.0359: real time    0.0359
    EDDIAG:  cpu time    3.3064: real time    3.3126
  RMM-DIIS:  cpu time   10.6659: real time   10.6807
    ORTHCH:  cpu time    0.6383: real time    0.6392
       DOS:  cpu time    0.0037: real time    0.0038
    CHARGE:  cpu time    0.7050: real time    0.7056
    MIXING:  cpu time    0.0016: real time    0.0016
    --------------------------------------------
      LOOP:  cpu time   15.4551: real time   15.4778

 eigenvalue-minimisations  : 13446
 total energy-change (2. order) :-0.2389525E+00  (-0.3452182E+01)
 number of electron     127.9999439 magnetization       6.3640677
 augmentation part       70.6384148 magnetization       3.8328358

 Broyden mixing:
  rms(total) = 0.38675E+01    rms(broyden)= 0.38673E+01
  rms(prec ) = 0.70250E+01
  weight for this iteration     100.00

 eigenvalues of (default mixing * dielectric matrix)
  average eigenvalue GAMMA=   0.3746
  0.3746  0.3746

 Free energy of the ion-electron system (eV)
  ---------------------------------------------------
  alpha Z        PSCENC =       529.74407833
  Ewald energy   TEWEN  =     -9393.83377442
  -Hartree energ DENC   =     -2772.56668878
  -exchange      EXHF   =         0.00000000
  -V(xc)+E(xc)   XCENC  =        65.55672564
  PAW double counting   =     11343.84201190   -11638.80263706
  entropy T*S    EENTRO =        -0.00263502
  eigenvalues    EBANDS =       524.21195655
  atomic energy  EATOM  =     11229.46195210
  Solvation  Ediel_sol  =         0.00000000
  ---------------------------------------------------
  free energy    TOTEN  =      -112.38901077 eV

  energy without entropy =     -112.38637574  energy(sigma->0) =     -112.38769326


--------------------------------------------------------------------------------------------------------




--------------------------------------- Iteration      1(   8)  ---------------------------------------


    POTLOK:  cpu time    0.0981: real time    0.0984
    SETDIJ:  cpu time    0.0359: real time    0.0359
    EDDIAG:  cpu time    3.3160: real time    3.3203
  RMM-DIIS:  cpu time   10.6519: real time   10.6662
    ORTHCH:  cpu time    0.6390: real time    0.6398
       DOS:  cpu time    0.0038: real time    0.0038
    CHARGE:  cpu time    0.7158: real time    0.7166
    MIXING:  cpu time    0.0018: real time    0.0018
    --------------------------------------------
      LOOP:  cpu time   15.4624: real time   15.4830

 eigenvalue-minimisations  : 13441
 total energy-change (2. order) : 0.7269092E+01  (-0.2283681E+01)
 number of electron     127.9999564 magnetization       6.1159052
 augmentation part       68.8979332 magnetization       5.0324812

 Broyden mixing:
  rms(total) = 0.25766E+01    rms(broyden)= 0.25765E+01
  rms(prec ) = 0.49106E+01
  weight for this iteration     100.00

 eigenvalues of (default mixing * dielectric matrix)
  average eigenvalue GAMMA=   0.4270
  0.5595  0.5595  0.1620

 Free energy of the ion-electron system (eV)
  ---------------------------------------------------
  alpha Z        PSCENC =       529.74407833
  Ewald energy   TEWEN  =     -9393.83377442
  -Hartree energ DENC   =     -2827.57424579
  -exchange      EXHF   =         0.00000000
  -V(xc)+E(xc)   XCENC  =        69.17116774
  PAW double counting   =     11734.71525189   -12054.89369416
  entropy T*S    EENTRO =        -0.00527812
  eigenvalues    EBANDS =       608.09462346
  atomic energy  EATOM  =     11229.46195210
  Solvation  Ediel_sol  =         0.00000000
  ---------------------------------------------------
  free energy    TOTEN  =      -105.11991896 eV

  energy without entropy =     -105.11464084  energy(sigma->0) =     -105.11727990


--------------------------------------------------------------------------------------------------------




--------------------------------------- Iteration      1(   9)  ---------------------------------------


    POTLOK:  cpu time    0.1008: real time    0.1009
    SETDIJ:  cpu time    0.0359: real time    0.0360
    EDDIAG:  cpu time    3.3184: real time    3.3237
  RMM-DIIS:  cpu time   10.5170: real time   10.5326
    ORTHCH:  cpu time    0.6378: real time    0.6385
       DOS:  cpu time    0.0036: real time    0.0036
    CHARGE:  cpu time    0.6987: real time    0.6994
    MIXING:  cpu time    0.0018: real time    0.0018
    --------------------------------------------
      LOOP:  cpu time   15.3141: real time   15.3364

 eigenvalue-minimisations  : 13440
 total energy-change (2. order) : 0.1851746E+01  (-0.8611214E+00)
 number of electron     127.9999596 magnetization       7.0350463
 augmentation part       66.6477994 magnetization       4.4274979

 Broyden mixing:
  rms(total) = 0.18432E+01    rms(broyden)= 0.18430E+01
  rms(prec ) = 0.28356E+01
  weight for this iteration     100.00

 eigenvalues of (default mixing * dielectric matrix)
  average eigenvalue GAMMA=   0.4363
  0.8670  0.5019  0.2293  0.1471

 Free energy of the ion-electron system (eV)
  ---------------------------------------------------
  alpha Z        PSCENC =       529.74407833
  Ewald energy   TEWEN  =     -9393.83377442
  -Hartree energ DENC   =     -2851.84669160
  -exchange      EXHF   =         0.00000000
  -V(xc)+E(xc)   XCENC  =        70.52091397
  PAW double counting   =     11965.34083774   -12296.82456918
  entropy T*S    EENTRO =        -0.00386936
  eigenvalues    EBANDS =       644.17294937
  atomic energy  EATOM  =     11229.46195210
  Solvation  Ediel_sol  =         0.00000000
  ---------------------------------------------------
  free energy    TOTEN  =      -103.26817305 eV

  energy without entropy =     -103.26430369  energy(sigma->0) =     -103.26623837


--------------------------------------------------------------------------------------------------------




--------------------------------------- Iteration      1(  10)  ---------------------------------------


    POTLOK:  cpu time    0.1033: real time    0.1041
    SETDIJ:  cpu time    0.0376: real time    0.0376
    EDDIAG:  cpu time    3.3830: real time    3.3873
  RMM-DIIS:  cpu time   10.5464: real time   10.5610
    ORTHCH:  cpu time    0.6359: real time    0.6366
       DOS:  cpu time    0.0037: real time    0.0037
    CHARGE:  cpu time    0.6931: real time    0.6937
    MIXING:  cpu time    0.0019: real time    0.0019
    --------------------------------------------
      LOOP:  cpu time   15.4048: real time   15.4261

 eigenvalue-minimisations  : 13441
 total energy-change (2. order) : 0.9884465E+00  (-0.1782239E+00)
 number of electron     127.9999544 magnetization       7.5625596
 augmentation part       67.7046098 magnetization       5.3455280

 Broyden mixing:
  rms(total) = 0.86698E+00    rms(broyden)= 0.86694E+00
  rms(prec ) = 0.10097E+01
  weight for this iteration     100.00

 eigenvalues of (default mixing * dielectric matrix)
  average eigenvalue GAMMA=   0.4279
  0.7636  0.4909  0.4909  0.2373  0.1566

 Free energy of the ion-electron system (eV)
  ---------------------------------------------------
  alpha Z        PSCENC =       529.74407833
  Ewald energy   TEWEN  =     -9393.83377442
  -Hartree energ DENC   =     -2833.92138846
  -exchange      EXHF   =         0.00000000
  -V(xc)+E(xc)   XCENC  =        70.86772796
  PAW double counting   =     12204.09248706   -12536.81458873
  entropy T*S    EENTRO =        -0.00317403
  eigenvalues    EBANDS =       628.12695360
  atomic energy  EATOM  =     11229.46195210
  Solvation  Ediel_sol  =         0.00000000
  ---------------------------------------------------
  free energy    TOTEN  =      -102.27972659 eV

  energy without entropy =     -102.27655255  energy(sigma->0) =     -102.27813957


--------------------------------------------------------------------------------------------------------




--------------------------------------- Iteration      1(  11)  ---------------------------------------


    POTLOK:  cpu time    0.0982: real time    0.0984
    SETDIJ:  cpu time    0.0360: real time    0.0360
    EDDIAG:  cpu time    3.3358: real time    3.3400
  RMM-DIIS:  cpu time   10.9028: real time   10.9185
    ORTHCH:  cpu time    0.6407: real time    0.6414
       DOS:  cpu time    0.0037: real time    0.0037
    CHARGE:  cpu time    0.6990: real time    0.6996
    MIXING:  cpu time    0.0020: real time    0.0020
    --------------------------------------------
      LOOP:  cpu time   15.7181: real time   15.7397

 eigenvalue-minimisations  : 13586
 total energy-change (2. order) :-0.3010902E+00  (-0.4112489E-01)
 number of electron     127.9999559 magnetization       8.4971496
 augmentation part       67.5876174 magnetization       5.9795995

 Broyden mixing:
  rms(total) = 0.62037E+00    rms(broyden)= 0.62035E+00
  rms(prec ) = 0.76911E+00
  weight for this iteration     100.00

 eigenvalues of (default mixing * dielectric matrix)
  average eigenvalue GAMMA=   0.5625
  0.8516  0.8516  0.6941  0.6182  0.2039  0.1557

 Free energy of the ion-electron system (eV)
  ---------------------------------------------------
  alpha Z        PSCENC =       529.74407833
  Ewald energy   TEWEN  =     -9393.83377442
  -Hartree energ DENC   =     -2833.96627527
  -exchange      EXHF   =         0.00000000
  -V(xc)+E(xc)   XCENC  =        72.89073257
  PAW double counting   =     12370.21495770   -12706.51146481
  entropy T*S    EENTRO =        -0.00287606
  eigenvalues    EBANDS =       629.42185306
  atomic energy  EATOM  =     11229.46195210
  Solvation  Ediel_sol  =         0.00000000
  ---------------------------------------------------
  free energy    TOTEN  =      -102.58081679 eV

  energy without entropy =     -102.57794074  energy(sigma->0) =     -102.57937877


--------------------------------------------------------------------------------------------------------




--------------------------------------- Iteration      1(  12)  ---------------------------------------


    POTLOK:  cpu time    0.0984: real time    0.0988
    SETDIJ:  cpu time    0.0359: real time    0.0359
    EDDIAG:  cpu time    3.3403: real time    3.3447
  RMM-DIIS:  cpu time   10.7349: real time   10.7525
    ORTHCH:  cpu time    0.6395: real time    0.6404
       DOS:  cpu time    0.0038: real time    0.0038
    CHARGE:  cpu time    0.7019: real time    0.7027
    MIXING:  cpu time    0.0021: real time    0.0021
    --------------------------------------------
      LOOP:  cpu time   15.5568: real time   15.5809

 eigenvalue-minimisations  : 13634
 total energy-change (2. order) :-0.2366376E+00  (-0.4034221E-01)
 number of electron     127.9999561 magnetization       9.2911812
 augmentation part       67.6103161 magnetization       7.0603522

 Broyden mixing:
  rms(total) = 0.50429E+00    rms(broyden)= 0.50428E+00
  rms(prec ) = 0.73542E+00
  weight for this iteration     100.00

 eigenvalues of (default mixing * dielectric matrix)
  average eigenvalue GAMMA=   0.6662
  1.9328  0.7585  0.7585  0.5713  0.1554  0.2064  0.2809

 Free energy of the ion-electron system (eV)
  ---------------------------------------------------
  alpha Z        PSCENC =       529.74407833
  Ewald energy   TEWEN  =     -9393.83377442
  -Hartree energ DENC   =     -2831.71926995
  -exchange      EXHF   =         0.00000000
  -V(xc)+E(xc)   XCENC  =        74.83022414
  PAW double counting   =     12591.51166397   -12931.61054409
  entropy T*S    EENTRO =        -0.00290750
  eigenvalues    EBANDS =       628.80112298
  atomic energy  EATOM  =     11229.46195210
  Solvation  Ediel_sol  =         0.00000000
  ---------------------------------------------------
  free energy    TOTEN  =      -102.81745443 eV

  energy without entropy =     -102.81454693  energy(sigma->0) =     -102.81600068


--------------------------------------------------------------------------------------------------------




--------------------------------------- Iteration      1(  13)  ---------------------------------------


    POTLOK:  cpu time    0.0987: real time    0.0988
    SETDIJ:  cpu time    0.0368: real time    0.0368
    EDDIAG:  cpu time    3.3477: real time    3.3524
  RMM-DIIS:  cpu time   11.2721: real time   11.2877
    ORTHCH:  cpu time    0.6382: real time    0.6389
       DOS:  cpu time    0.0037: real time    0.0037
    CHARGE:  cpu time    0.6998: real time    0.7005
    MIXING:  cpu time    0.0023: real time    0.0023
    --------------------------------------------
      LOOP:  cpu time   16.0993: real time   16.1212

 eigenvalue-minimisations  : 14140
 total energy-change (2. order) : 0.4331743E-01  (-0.2411898E-01)
 number of electron     127.9999557 magnetization       9.1828475
 augmentation part       67.7572371 magnetization       6.7981231

 Broyden mixing:
  rms(total) = 0.16286E+00    rms(broyden)= 0.16285E+00
  rms(prec ) = 0.21305E+00
  weight for this iteration     100.00

 eigenvalues of (default mixing * dielectric matrix)
  average eigenvalue GAMMA=   0.7267
  2.1350  0.9064  0.9064  0.6104  0.6104  0.1556  0.2056  0.2842

 Free energy of the ion-electron system (eV)
  ---------------------------------------------------
  alpha Z        PSCENC =       529.74407833
  Ewald energy   TEWEN  =     -9393.83377442
  -Hartree energ DENC   =     -2827.17715523
  -exchange      EXHF   =         0.00000000
  -V(xc)+E(xc)   XCENC  =        76.08752305
  PAW double counting   =     12846.49200114   -13190.05272800
  entropy T*S    EENTRO =        -0.00304193
  eigenvalues    EBANDS =       626.50700795
  atomic energy  EATOM  =     11229.46195210
  Solvation  Ediel_sol  =         0.00000000
  ---------------------------------------------------
  free energy    TOTEN  =      -102.77413700 eV

  energy without entropy =     -102.77109507  energy(sigma->0) =     -102.77261604


--------------------------------------------------------------------------------------------------------




--------------------------------------- Iteration      1(  14)  ---------------------------------------


    POTLOK:  cpu time    0.0987: real time    0.0994
    SETDIJ:  cpu time    0.0360: real time    0.0360
    EDDIAG:  cpu time    3.3545: real time    3.3589
  RMM-DIIS:  cpu time   11.9256: real time   11.9420
    ORTHCH:  cpu time    0.6421: real time    0.6429
       DOS:  cpu time    0.0038: real time    0.0038
    CHARGE:  cpu time    0.7040: real time    0.7049
    MIXING:  cpu time    0.0025: real time    0.0025
    --------------------------------------------
      LOOP:  cpu time   16.7670: real time   16.7903

 eigenvalue-minimisations  : 14922
 total energy-change (2. order) : 0.1967627E-02  (-0.6229047E-02)
 number of electron     127.9999557 magnetization       9.1312647
 augmentation part       67.7771594 magnetization       6.6715522

 Broyden mixing:
  rms(total) = 0.82310E-01    rms(broyden)= 0.82308E-01
  rms(prec ) = 0.11302E+00
  weight for this iteration     100.00

 eigenvalues of (default mixing * dielectric matrix)
  average eigenvalue GAMMA=   0.7920
  2.3330  1.0612  1.0612  0.6908  0.6908  0.6398  0.1556  0.2056  0.2899

 Free energy of the ion-electron system (eV)
  ---------------------------------------------------
  alpha Z        PSCENC =       529.74407833
  Ewald energy   TEWEN  =     -9393.83377442
  -Hartree energ DENC   =     -2825.86333246
  -exchange      EXHF   =         0.00000000
  -V(xc)+E(xc)   XCENC  =        75.81367245
  PAW double counting   =     12912.60484215   -13256.62125181
  entropy T*S    EENTRO =        -0.00281519
  eigenvalues    EBANDS =       625.92445948
  atomic energy  EATOM  =     11229.46195210
  Solvation  Ediel_sol  =         0.00000000
  ---------------------------------------------------
  free energy    TOTEN  =      -102.77216937 eV

  energy without entropy =     -102.76935418  energy(sigma->0) =     -102.77076178


--------------------------------------------------------------------------------------------------------




--------------------------------------- Iteration      1(  15)  ---------------------------------------


    POTLOK:  cpu time    0.0993: real time    0.0994
    SETDIJ:  cpu time    0.0361: real time    0.0362
    EDDIAG:  cpu time    3.3677: real time    3.3720
  RMM-DIIS:  cpu time   11.5312: real time   11.5462
    ORTHCH:  cpu time    0.6392: real time    0.6401
       DOS:  cpu time    0.0038: real time    0.0038
    CHARGE:  cpu time    0.7073: real time    0.7080
    MIXING:  cpu time    0.0028: real time    0.0028
    --------------------------------------------
      LOOP:  cpu time   16.3874: real time   16.4085

 eigenvalue-minimisations  : 14493
 total energy-change (2. order) : 0.1932081E-02  (-0.1031834E-02)
 number of electron     127.9999557 magnetization       9.1447632
 augmentation part       67.8015610 magnetization       6.7290140

 Broyden mixing:
  rms(total) = 0.51072E-01    rms(broyden)= 0.51069E-01
  rms(prec ) = 0.53910E-01
  weight for this iteration     100.00

 eigenvalues of (default mixing * dielectric matrix)
  average eigenvalue GAMMA=   0.8346
  2.5456  1.4811  0.9004  0.9004  0.6535  0.6535  0.5585  0.1556  0.2056  0.2914

 Free energy of the ion-electron system (eV)
  ---------------------------------------------------
  alpha Z        PSCENC =       529.74407833
  Ewald energy   TEWEN  =     -9393.83377442
  -Hartree energ DENC   =     -2825.20887191
  -exchange      EXHF   =         0.00000000
  -V(xc)+E(xc)   XCENC  =        75.73870133
  PAW double counting   =     12940.74971902   -13284.79892166
  entropy T*S    EENTRO =        -0.00271896
  eigenvalues    EBANDS =       625.37959886
  atomic energy  EATOM  =     11229.46195210
  Solvation  Ediel_sol  =         0.00000000
  ---------------------------------------------------
  free energy    TOTEN  =      -102.77023729 eV

  energy without entropy =     -102.76751834  energy(sigma->0) =     -102.76887781


--------------------------------------------------------------------------------------------------------




--------------------------------------- Iteration      1(  16)  ---------------------------------------


    POTLOK:  cpu time    0.0991: real time    0.0992
    SETDIJ:  cpu time    0.0360: real time    0.0361
    EDDIAG:  cpu time    3.3669: real time    3.3711
  RMM-DIIS:  cpu time   12.2299: real time   12.2456
    ORTHCH:  cpu time    0.6419: real time    0.6427
       DOS:  cpu time    0.0037: real time    0.0037
    CHARGE:  cpu time    0.7076: real time    0.7083
    MIXING:  cpu time    0.0027: real time    0.0027
    --------------------------------------------
      LOOP:  cpu time   17.0878: real time   17.1094

 eigenvalue-minimisations  : 15287
 total energy-change (2. order) :-0.1465159E-02  (-0.2985482E-03)
 number of electron     127.9999558 magnetization       9.1618269
 augmentation part       67.8120522 magnetization       6.7500887

 Broyden mixing:
  rms(total) = 0.20854E-01    rms(broyden)= 0.20853E-01
  rms(prec ) = 0.22948E-01
  weight for this iteration     100.00

 eigenvalues of (default mixing * dielectric matrix)
  average eigenvalue GAMMA=   0.9247
  2.4056  2.4056  1.0213  1.0213  0.7218  0.7218  0.6110  0.6110  0.1556  0.2056
  0.2914

 Free energy of the ion-electron system (eV)
  ---------------------------------------------------
  alpha Z        PSCENC =       529.74407833
  Ewald energy   TEWEN  =     -9393.83377442
  -Hartree energ DENC   =     -2825.09396779
  -exchange      EXHF   =         0.00000000
  -V(xc)+E(xc)   XCENC  =        75.93315308
  PAW double counting   =     12951.47507077   -13295.58102929
  entropy T*S    EENTRO =        -0.00277339
  eigenvalues    EBANDS =       625.12558816
  atomic energy  EATOM  =     11229.46195210
  Solvation  Ediel_sol  =         0.00000000
  ---------------------------------------------------
  free energy    TOTEN  =      -102.77170245 eV

  energy without entropy =     -102.76892906  energy(sigma->0) =     -102.77031576


--------------------------------------------------------------------------------------------------------




--------------------------------------- Iteration      1(  17)  ---------------------------------------


    POTLOK:  cpu time    0.0991: real time    0.0992
    SETDIJ:  cpu time    0.0360: real time    0.0361
    EDDIAG:  cpu time    3.3800: real time    3.3847
  RMM-DIIS:  cpu time   11.5959: real time   11.6108
    ORTHCH:  cpu time    0.6377: real time    0.6385
       DOS:  cpu time    0.0036: real time    0.0037
    CHARGE:  cpu time    0.7113: real time    0.7121
    MIXING:  cpu time    0.0029: real time    0.0029
    --------------------------------------------
      LOOP:  cpu time   16.4666: real time   16.4880

 eigenvalue-minimisations  : 14446
 total energy-change (2. order) :-0.2095473E-03  (-0.6700919E-04)
 number of electron     127.9999558 magnetization       9.1701621
 augmentation part       67.8043919 magnetization       6.7559991

 Broyden mixing:
  rms(total) = 0.58526E-02    rms(broyden)= 0.58514E-02
  rms(prec ) = 0.64883E-02
  weight for this iteration     100.00

 eigenvalues of (default mixing * dielectric matrix)
  average eigenvalue GAMMA=   0.9395
  2.5229  2.5229  1.0659  1.0659  0.7482  0.7482  0.6783  0.6783  0.5914  0.1556
  0.2056  0.2914

 Free energy of the ion-electron system (eV)
  ---------------------------------------------------
  alpha Z        PSCENC =       529.74407833
  Ewald energy   TEWEN  =     -9393.83377442
  -Hartree energ DENC   =     -2825.49186401
  -exchange      EXHF   =         0.00000000
  -V(xc)+E(xc)   XCENC  =        76.04530959
  PAW double counting   =     12947.44808472   -13291.49667241
  entropy T*S    EENTRO =        -0.00282319
  eigenvalues    EBANDS =       625.35379729
  atomic energy  EATOM  =     11229.46195210
  Solvation  Ediel_sol  =         0.00000000
  ---------------------------------------------------
  free energy    TOTEN  =      -102.77191200 eV

  energy without entropy =     -102.76908881  energy(sigma->0) =     -102.77050040


--------------------------------------------------------------------------------------------------------




--------------------------------------- Iteration      1(  18)  ---------------------------------------


    POTLOK:  cpu time    0.0990: real time    0.0997
    SETDIJ:  cpu time    0.0359: real time    0.0359
    EDDIAG:  cpu time    3.3919: real time    3.4073
  RMM-DIIS:  cpu time   11.3524: real time   11.3691
    ORTHCH:  cpu time    0.6392: real time    0.6398
       DOS:  cpu time    0.0038: real time    0.0038
    CHARGE:  cpu time    0.7119: real time    0.7125
    MIXING:  cpu time    0.0032: real time    0.0032
    --------------------------------------------
      LOOP:  cpu time   16.2372: real time   16.2712

 eigenvalue-minimisations  : 14052
 total energy-change (2. order) :-0.7795998E-05  (-0.1467996E-04)
[...]
     79      10.8817      0.00000
     80      11.4745      0.00000
     81      11.5655      0.00000
     82      11.7399      0.00000
     83      11.9491      0.00000
     84      12.5408      0.00000


--------------------------------------------------------------------------------------------------------


 soft charge-density along one line, spin component           1
         0         1         2         3         4         5         6         7         8         9
 total charge-density along one line

 soft charge-density along one line, spin component           2
         0         1         2         3         4         5         6         7         8         9
 total charge-density along one line

 pseudopotential strength for first ion, spin component:           1
 -1.721  -0.006  -0.025  -0.005   0.000  -2.353  -0.006  -0.024
 -0.006  -1.721   0.013  -0.005  -0.022  -0.006  -2.353   0.012
 -0.025   0.013  -1.757  -0.011   0.004  -0.024   0.012  -2.387
 -0.005  -0.005  -0.011  -1.724  -0.019  -0.005  -0.005  -0.010
  0.000  -0.022   0.004  -0.019  -1.752   0.000  -0.020   0.003
 -2.353  -0.006  -0.024  -0.005   0.000  -2.916  -0.005  -0.022
 -0.006  -2.353   0.012  -0.005  -0.020  -0.005  -2.916   0.011
 -0.024   0.012  -2.387  -0.010   0.003  -0.022   0.011  -2.948
 -0.005  -0.005  -0.010  -2.356  -0.018  -0.005  -0.005  -0.010
  0.000  -0.020   0.003  -0.018  -2.383   0.000  -0.019   0.003
 -0.006  -0.006   0.000   0.002   0.000  -0.006  -0.006   0.000
 -0.011  -0.011   0.000   0.004   0.001  -0.010  -0.010   0.000
 -0.004   0.004  -0.000   0.000   0.000  -0.004   0.004  -0.000
  0.000  -0.000   0.001  -0.004   0.000   0.000  -0.000   0.001
  0.000   0.000   0.000   0.004  -0.001   0.000   0.000   0.000
 -0.005   0.005  -0.000   0.000   0.000  -0.005   0.005  -0.000
  0.000  -0.000   0.001  -0.006   0.000   0.000  -0.000   0.001
  0.000   0.000   0.000   0.006  -0.001   0.000   0.000   0.000
 pseudopotential strength for first ion, spin component:           2
 -1.554  -0.012   0.017   0.004   0.000  -2.194  -0.012   0.016
 -0.012  -1.554  -0.008   0.004   0.014  -0.012  -2.194  -0.008
  0.017  -0.008  -1.500   0.009  -0.003   0.016  -0.008  -2.142
  0.004   0.004   0.009  -1.559   0.015   0.004   0.004   0.008
  0.000   0.014  -0.003   0.015  -1.503   0.000   0.014  -0.003
 -2.194  -0.012   0.016   0.004   0.000  -2.764  -0.012   0.016
 -0.012  -2.194  -0.008   0.004   0.014  -0.012  -2.764  -0.008
  0.016  -0.008  -2.142   0.008  -0.003   0.016  -0.008  -2.714
  0.004   0.004   0.008  -2.199   0.014   0.004   0.004   0.008
  0.000   0.014  -0.003   0.014  -2.145   0.000   0.014  -0.003
  0.001   0.001   0.000  -0.004   0.000   0.001   0.001   0.000
  0.001   0.001   0.000  -0.008   0.000   0.002   0.002   0.000
  0.004  -0.004  -0.000   0.000   0.000   0.004  -0.004  -0.000
  0.000  -0.000  -0.001   0.004  -0.000   0.000  -0.000  -0.001
  0.000   0.000  -0.000  -0.004   0.001   0.000   0.000  -0.000
  0.005  -0.005  -0.000   0.000   0.000   0.005  -0.005  -0.000
  0.000  -0.000  -0.001   0.006  -0.000   0.000  -0.000  -0.001
  0.000   0.000  -0.000  -0.006   0.001   0.000   0.000  -0.000
 total augmentation occupancy for first ion, spin component:           1
  2.018   0.045   0.046   0.078   0.001  -0.525  -0.065  -0.044  -0.078   0.000  -0.082   0.038  -0.003   0.002   0.010   0.001
  0.045   2.018  -0.022   0.078   0.040  -0.065  -0.525   0.022  -0.078  -0.038  -0.082   0.038   0.003  -0.010  -0.002  -0.001
  0.046  -0.022   2.716  -0.006  -0.027  -0.044   0.022  -1.009   0.009   0.019  -0.013  -0.001   0.007  -0.001   0.000   0.000
  0.078   0.078  -0.006   1.960  -0.010  -0.078  -0.078   0.009  -0.489   0.015  -0.127   0.039  -0.000   0.002  -0.002   0.000
  0.001   0.040  -0.027  -0.010   2.685   0.000  -0.038   0.019   0.015  -0.987  -0.023  -0.001  -0.004  -0.000   0.001  -0.000
 -0.525  -0.065  -0.044  -0.078   0.000   0.824   0.077   0.026   0.078  -0.001   0.049  -0.025   0.001  -0.002  -0.005  -0.000
 -0.065  -0.525   0.022  -0.078  -0.038   0.077   0.824  -0.014   0.078   0.022   0.049  -0.025  -0.001   0.005   0.002   0.000
 -0.044   0.022  -1.009   0.009   0.019   0.026  -0.014   1.061  -0.003  -0.013   0.007   0.001  -0.004   0.000   0.000  -0.000
 -0.078  -0.078   0.009  -0.489   0.015   0.078   0.078  -0.003   0.801  -0.006   0.078  -0.025  -0.000  -0.002   0.002   0.000
  0.000  -0.038   0.019   0.015  -0.987  -0.001   0.022  -0.013  -0.006   1.045   0.012   0.001   0.002  -0.000  -0.000   0.000
 -0.082  -0.082  -0.013  -0.127  -0.023   0.049   0.049   0.007   0.078   0.012   2.105  -0.284   0.000  -0.001   0.001  -0.000
  0.038   0.038  -0.001   0.039  -0.001  -0.025  -0.025   0.001  -0.025   0.001  -0.284   0.049  -0.000  -0.000   0.000   0.000
 -0.003   0.003   0.007   0.000  -0.004   0.001  -0.001  -0.004  -0.000   0.002  -0.000  -0.000   0.253   0.001   0.001  -0.026
  0.002  -0.010  -0.001   0.002  -0.000  -0.002   0.005   0.000  -0.002  -0.000  -0.001  -0.000   0.001   0.254   0.001  -0.002
  0.010  -0.002   0.000  -0.002   0.001  -0.005   0.002   0.000   0.002  -0.000   0.001   0.000   0.001   0.001   0.254  -0.002
  0.001  -0.001   0.000   0.000  -0.000  -0.000   0.000  -0.000   0.000   0.000  -0.000   0.000  -0.026  -0.002  -0.002   0.003
 -0.000   0.001  -0.000   0.000   0.000   0.000  -0.000  -0.000  -0.000  -0.000   0.000  -0.000  -0.002  -0.026  -0.002   0.001
 -0.001   0.000  -0.000  -0.000  -0.000   0.000  -0.000   0.000   0.000   0.000  -0.000   0.000  -0.002  -0.002  -0.026   0.001
 total augmentation occupancy for first ion, spin component:           2
  0.277   0.065   0.175  -0.074  -0.008  -0.165  -0.066  -0.092   0.075   0.007   0.046  -0.001   0.076  -0.003  -0.004  -0.003
  0.065   0.277  -0.095  -0.074   0.148  -0.066  -0.165   0.052   0.075  -0.076   0.046  -0.001  -0.076   0.004   0.003   0.003
  0.175  -0.095   0.485   0.088  -0.038  -0.093   0.052  -0.233  -0.047   0.024   0.011   0.004  -0.004   0.042   0.021   0.000
 -0.074  -0.074   0.088   0.266   0.152   0.075   0.075  -0.047  -0.158  -0.081  -0.046   0.004  -0.000   0.082  -0.082   0.000
 -0.008   0.148  -0.038   0.152   0.442   0.006  -0.077   0.024  -0.081  -0.206   0.019   0.006   0.003   0.000  -0.037  -0.000
 -0.165  -0.066  -0.093   0.075   0.006   0.076   0.061   0.039  -0.068  -0.005  -0.028   0.005  -0.047   0.002   0.002   0.005
 -0.066  -0.165   0.052   0.075  -0.077   0.061   0.076  -0.024  -0.068   0.031  -0.028   0.005   0.047  -0.002  -0.002  -0.005
 -0.092   0.052  -0.233  -0.047   0.024   0.039  -0.024   0.071   0.020  -0.015  -0.006  -0.001   0.003  -0.039  -0.019  -0.000
  0.075   0.075  -0.047  -0.158  -0.081  -0.068  -0.068   0.020   0.072   0.034   0.031  -0.007   0.000  -0.051   0.051  -0.000
  0.007  -0.076   0.024  -0.081  -0.206  -0.005   0.031  -0.015   0.034   0.054  -0.011  -0.003  -0.001  -0.000   0.034   0.000
  0.046   0.046   0.011  -0.046   0.019  -0.028  -0.028  -0.006   0.031  -0.011  -0.043   0.010  -0.000  -0.009   0.009   0.000
 -0.001  -0.001   0.004   0.004   0.006   0.005   0.005  -0.001  -0.007  -0.003   0.010  -0.002   0.000  -0.004   0.004   0.000
  0.076  -0.076  -0.004   0.000   0.003  -0.047   0.047   0.003  -0.000  -0.001   0.000  -0.000  -0.002  -0.006  -0.006   0.000
 -0.003   0.004   0.042   0.082   0.000   0.002  -0.002  -0.039  -0.051  -0.000  -0.009  -0.004  -0.006  -0.002   0.008   0.001
 -0.004   0.003   0.021  -0.082  -0.037   0.002  -0.002  -0.019   0.051   0.034   0.009   0.004  -0.006   0.008  -0.002   0.001
 -0.003   0.003   0.000  -0.000  -0.000   0.005  -0.005  -0.000   0.000   0.000   0.000  -0.000   0.000   0.001   0.001   0.000
  0.000  -0.000  -0.000  -0.003  -0.000  -0.000   0.000   0.001   0.005   0.000  -0.002   0.001   0.001   0.000  -0.001  -0.000
  0.000  -0.000   0.000   0.003   0.000  -0.000   0.000   0.000  -0.005  -0.001   0.002  -0.001   0.001  -0.001   0.000  -0.000


------------------------ aborting loop because EDIFF is reached ----------------------------------------





 total charge     

# of ion       s       p       d       tot
------------------------------------------
    1        0.465   0.419   8.392   9.275
    2        0.465   0.420   8.395   9.280
    3        0.466   0.417   8.372   9.255
    4        0.466   0.420   8.373   9.259
    5        0.466   0.420   8.373   9.259
    6        0.466   0.417   8.372   9.255
    7        0.465   0.420   8.395   9.280
    8        0.465   0.419   8.392   9.275
    9        0.322   0.312   4.917   5.552
   10        0.334   0.319   4.941   5.594
   11        0.331   0.319   4.950   5.599
   12        0.333   0.310   4.954   5.596
   13        0.330   0.322   4.879   5.531
   14        0.323   0.302   4.946   5.571
   15        1.263   1.815   0.355   3.433
   16        1.268   1.823   0.348   3.439
--------------------------------------------------
tot          8.228   8.877  97.351 114.456



 magnetization (x)

# of ion       s       p       d       tot
------------------------------------------
    1       -0.005  -0.003   0.229   0.221
    2       -0.007  -0.001   0.244   0.236
    3       -0.004  -0.006   0.221   0.210
    4       -0.006  -0.002   0.228   0.220
    5       -0.006  -0.002   0.228   0.220
    6       -0.004  -0.006   0.221   0.210
    7       -0.007  -0.001   0.244   0.236
    8       -0.005  -0.003   0.229   0.221
    9       -0.030  -0.024  -3.560  -3.615
   10       -0.033  -0.031  -3.524  -3.588
   11        0.026   0.046   3.530   3.603
   12        0.030   0.001   3.585   3.616
   13        0.031   0.037   3.499   3.567
   14        0.027   0.007   3.588   3.622
   15        0.000  -0.023  -0.005  -0.028
   16        0.000  -0.051  -0.004  -0.054
--------------------------------------------------
tot          0.008  -0.064   8.955   8.899

    CHARGE:  cpu time    0.7084: real time    0.7091
    FORLOC:  cpu time    0.0080: real time    0.0080
    FORNL :  cpu time    5.0638: real time    5.0700
    STRESS:  cpu time   15.2514: real time   15.2707
    FORCOR:  cpu time    0.1015: real time    0.1017
    FORHAR:  cpu time    0.0169: real time    0.0169
    MIXING:  cpu time    0.0033: real time    0.0033
    OFIELD:  cpu time    0.0000: real time    0.0000

  FORCE on cell =-STRESS in cart. coord.  units (eV):
  Direction    XX          YY          ZZ          XY          YZ          ZX
  --------------------------------------------------------------------------------------
  Alpha Z   529.74408   529.74408   529.74408
  Ewald   -3131.28731 -3131.28731 -3131.28731    -0.00000    -0.00000    -0.00000
  Hartree   941.20522   943.11268   941.20522    -0.00000    -0.00000    -0.00000
  E(xc)    -671.36356  -671.70032  -671.36356    -0.00000     0.00000     0.00000
  Local    -162.54101  -168.46376  -162.54101     0.00000     0.00000    -0.00000
  n-local  -149.17135  -146.17550  -145.86173     0.04944    -0.38687    -0.09552
  augment  1579.48803  1581.47306  1579.48803    -0.00000    -0.00000    -0.00000
  Kinetic  1053.48100  1064.68427  1069.26616     1.10252     0.73618     1.93051
  Fock        0.00000     0.00000     0.00000     0.00000     0.00000     0.00000
  -------------------------------------------------------------------------------------
  Total      -0.89750     1.38720    -0.89750     0.00000     0.00000     0.00000
  in kB      -6.76965    10.46329    -6.76965     0.00000     0.00000     0.00000
  external pressure =       -1.03 kB  Pullay stress =        0.00 kB


 VOLUME and BASIS-vectors are now :
 -----------------------------------------------------------------------------
  energy-cutoff  :      550.00
  volume of cell :      212.41
      direct lattice vectors                 reciprocal lattice vectors
     5.966602175  0.000000000  0.000000000     0.167599577  0.000000000  0.000000000
     0.000000000  5.966602175  0.000000000     0.000000000  0.167599577  0.000000000
     0.000000000  0.000000000  5.966602175     0.000000000  0.000000000  0.167599577

  length of vectors
     5.966602175  5.966602175  5.966602175     0.167599577  0.167599577  0.167599577


 FORCES acting on ions
    electron-ion (+dipol)            ewald-force                    non-local-force                 convergence-correction
 -----------------------------------------------------------------------------------------------
   -.253E-01 0.250E-08 0.253E-01   0.568E-13 -.284E-13 0.000E+00   0.288E-01 -.104E-16 -.288E-01   -.341E-02 -.431E-13 0.341E-02
   0.253E-01 0.250E-08 0.253E-01   0.924E-13 -.284E-13 0.355E-14   -.288E-01 0.000E+00 -.288E-01   0.341E-02 -.149E-13 0.341E-02
   -.253E-01 -.250E-08 0.253E-01   0.604E-13 0.355E-14 0.000E+00   0.288E-01 -.104E-16 -.288E-01   -.341E-02 0.706E-13 0.341E-02
   0.253E-01 -.249E-08 0.253E-01   0.568E-13 -.284E-13 0.355E-14   -.288E-01 0.173E-17 -.288E-01   0.341E-02 0.862E-13 0.341E-02
   -.253E-01 0.250E-08 -.253E-01   0.568E-13 -.284E-13 0.355E-14   0.288E-01 -.173E-17 0.288E-01   -.341E-02 -.355E-13 -.341E-02
   0.253E-01 0.250E-08 -.253E-01   0.604E-13 0.355E-14 0.000E+00   -.288E-01 -.104E-16 0.288E-01   0.341E-02 -.354E-13 -.341E-02
   -.253E-01 -.250E-08 -.253E-01   0.924E-13 -.284E-13 0.355E-14   0.288E-01 0.694E-17 0.288E-01   -.341E-02 0.710E-13 -.341E-02
   0.253E-01 -.250E-08 -.253E-01   0.568E-13 -.284E-13 0.000E+00   -.288E-01 0.139E-16 0.288E-01   0.341E-02 0.103E-12 -.341E-02
   0.203E-12 -.242E-14 -.934E-12   -.834E-13 0.276E-13 0.119E-14   0.000E+00 0.000E+00 0.000E+00   0.448E-13 0.383E-13 0.154E-13
   0.197E-12 0.174E-12 0.225E-12   -.847E-13 0.267E-13 -.858E-15   0.000E+00 0.000E+00 0.000E+00   0.471E-13 -.288E-13 0.133E-13
   -.326E-13 0.203E-12 -.298E-13   -.871E-13 0.272E-13 0.117E-14   0.000E+00 0.000E+00 0.000E+00   -.175E-13 -.375E-13 0.715E-14
   -.342E-13 -.361E-13 0.171E-12   -.868E-13 0.300E-13 -.333E-15   0.000E+00 0.000E+00 0.000E+00   0.548E-14 0.101E-13 0.974E-14
   0.197E-12 -.214E-13 0.857E-12   -.867E-13 0.254E-13 -.138E-14   0.000E+00 0.000E+00 0.000E+00   0.306E-13 0.211E-13 -.782E-14
   -.279E-13 0.204E-12 0.167E-12   -.835E-13 0.281E-13 -.142E-14   0.000E+00 0.000E+00 0.000E+00   -.277E-14 -.158E-13 -.182E-14
   -.347E-13 -.983E-14 -.216E-14   -.110E-13 -.574E-14 0.364E-14   0.000E+00 0.000E+00 0.000E+00   -.595E-14 0.912E-14 0.312E-15
   -.366E-13 -.255E-12 -.655E-12   -.923E-14 -.446E-14 -.199E-13   0.000E+00 0.000E+00 0.000E+00   0.371E-14 -.754E-14 -.109E-14
 -----------------------------------------------------------------------------------------------
   0.614E-11 0.714E-11 0.814E-11   0.445E-15 -.872E-14 -.372E-14   0.694E-17 -.104E-16 -.104E-16   0.115E-12 0.191E-12 -.268E-12


 POSITION                                       TOTAL-FORCE (eV/Angst)
 -----------------------------------------------------------------------------------
      1.49165      1.49165      1.49165         0.000058      0.000000     -0.000058
      4.47495      1.49165      1.49165        -0.000058     -0.000000     -0.000058
      1.49165      4.47495      1.49165         0.000058      0.000000     -0.000058
      4.47495      4.47495      1.49165        -0.000058     -0.000000     -0.000058
      1.49165      1.49165      4.47495         0.000058      0.000000      0.000058
      4.47495      1.49165      4.47495        -0.000058     -0.000000      0.000058
      1.49165      4.47495      4.47495         0.000058      0.000000      0.000058
      4.47495      4.47495      4.47495        -0.000058     -0.000000      0.000058
      2.98330      0.00000      0.00000         0.000000     -0.000000      0.000000
      2.98330      2.98330      0.00000         0.000000     -0.000000      0.000000
      0.00000      2.98330      0.00000         0.000000     -0.000000      0.000000
      0.00000      0.00000      2.98330         0.000000     -0.000000      0.000000
      2.98330      0.00000      2.98330         0.000000     -0.000000      0.000000
      0.00000      2.98330      2.98330         0.000000     -0.000000      0.000000
      0.00000      0.00000      0.00000         0.000000     -0.000000      0.000000
      2.98330      2.98330      2.98330         0.000000     -0.000000      0.000000
 -----------------------------------------------------------------------------------
    total drift:                                0.000000      0.000000      0.000000


--------------------------------------------------------------------------------------------------------



  FREE ENERGIE OF THE ION-ELECTRON SYSTEM (eV)
  ---------------------------------------------------
  free  energy   TOTEN  =      -102.77192078 eV

  energy  without entropy=     -102.76908372  energy(sigma->0) =     -102.77050225



--------------------------------------------------------------------------------------------------------


    POTLOK:  cpu time    0.1356: real time    0.1358


--------------------------------------------------------------------------------------------------------




--------------------------------------------------------------------------------------------------------


  
 reached required accuracy - stopping structural energy minimisation
     LOOP+:  cpu time  380.7115: real time  381.3104
    4ORBIT:  cpu time    0.0000: real time    0.0000



 total charge     

# of ion       s       p       d       tot
------------------------------------------
    1        0.465   0.419   8.392   9.275
    2        0.465   0.420   8.395   9.280
    3        0.466   0.417   8.372   9.255
    4        0.466   0.420   8.373   9.259
    5        0.466   0.420   8.373   9.259
    6        0.466   0.417   8.372   9.255
    7        0.465   0.420   8.395   9.280
    8        0.465   0.419   8.392   9.275
    9        0.322   0.312   4.917   5.552
   10        0.334   0.319   4.941   5.594
   11        0.331   0.319   4.950   5.599
   12        0.333   0.310   4.954   5.596
   13        0.330   0.322   4.879   5.531
   14        0.323   0.302   4.946   5.571
   15        1.263   1.815   0.355   3.433
   16        1.268   1.823   0.348   3.439
--------------------------------------------------
tot          8.228   8.877  97.351 114.456



 magnetization (x)

# of ion       s       p       d       tot
------------------------------------------
    1       -0.005  -0.003   0.229   0.221
    2       -0.007  -0.001   0.244   0.236
    3       -0.004  -0.006   0.221   0.210
    4       -0.006  -0.002   0.228   0.220
    5       -0.006  -0.002   0.228   0.220
    6       -0.004  -0.006   0.221   0.210
    7       -0.007  -0.001   0.244   0.236
    8       -0.005  -0.003   0.229   0.221
    9       -0.030  -0.024  -3.560  -3.615
   10       -0.033  -0.031  -3.524  -3.588
   11        0.026   0.046   3.530   3.603
   12        0.030   0.001   3.585   3.616
   13        0.031   0.037   3.499   3.567
   14        0.027   0.007   3.588   3.622
   15        0.000  -0.023  -0.005  -0.028
   16        0.000  -0.051  -0.004  -0.054
--------------------------------------------------
tot          0.008  -0.064   8.955   8.899


 total amount of memory used by VASP MPI-rank0   103664. kBytes
=======================================================================

   base      :      30000. kBytes
   nonlr-proj:       6835. kBytes
   fftplans  :       1269. kBytes
   grid      :       6573. kBytes
   one-center:        497. kBytes
   wavefun   :      58490. kBytes

  
  
 General timing and accounting informations for this job:
 ========================================================
  
                  Total CPU time used (sec):      391.227
                            User time (sec):      370.208
                          System time (sec):       21.019
                         Elapsed time (sec):      392.392
  
                   Maximum memory used (kb):      136660.
                   Average memory used (kb):           0.
  
                          Minor page faults:      9591325
                          Major page faults:            7
                 Voluntary context switches:         1942
