 vasp.5.4.4.18Apr17-6-g9f103f2a35 (build May 21 2018 20:56:50) complex           
 executed on             LinuxGNU date 2021.10.15  15:42:48
 running on   12 total cores
 distrk:  each k-point on   12 cores,    1 groups
 distr:  one band on NCORES_PER_BAND=   1 cores,   12 groups


--------------------------------------------------------------------------------------------------------


 INCAR:
 POTCAR:    PAW_PBE Ni 02Aug2007                  
 POTCAR:    PAW_PBE Mn 06Sep2000                  
 POTCAR:    PAW_PBE In 08Apr2002                  

 ----------------------------------------------------------------------------- 
|                                                                             |
|           W    W    AA    RRRRR   N    N  II  N    N   GGGG   !!!           |
|           W    W   A  A   R    R  NN   N  II  NN   N  G    G  !!!           |
|           W    W  A    A  R    R  N N  N  II  N N  N  G       !!!           |
|           W WW W  AAAAAA  RRRRR   N  N N  II  N  N N  G  GGG   !            |
|           WW  WW  A    A  R   R   N   NN  II  N   NN  G    G                |
|           W    W  A    A  R    R  N    N  II  N    N   GGGG   !!!           |
|                                                                             |
|      For optimal performance we recommend to set                            |
|        NCORE= 4 - approx SQRT( number of cores)                             |
|      NCORE specifies how many cores store one orbital (NPAR=cpu/NCORE).     |
|      This setting can  greatly improve the performance of VASP for DFT.     |
|      The default,   NCORE=1            might be grossly inefficient         |
|      on modern multi-core architectures or massively parallel machines.     |
|      Do your own testing !!!!                                               |
|      Unfortunately you need to use the default for GW and RPA calculations. |
|      (for HF NCORE is supported but not extensively tested yet)             |
|                                                                             |
 ----------------------------------------------------------------------------- 

 POTCAR:    PAW_PBE Ni 02Aug2007                  
   VRHFIN =Ni:                                                                  
   LEXCH  = PE                                                                  
   EATOM  =  1077.6739 eV,   79.2068 Ry                                         
                                                                                
   TITEL  = PAW_PBE Ni 02Aug2007                                                
   LULTRA =        F    use ultrasoft PP ?                                      
   IUNSCR =        1    unscreen: 0-lin 1-nonlin 2-no                           
   RPACOR =    2.000    partial core radius                                     
   POMASS =   58.690; ZVAL   =   10.000    mass and valenz                      
   RCORE  =    2.300    outmost cutoff radius                                   
   RWIGS  =    2.430; RWIGS  =    1.286    wigner-seitz radius (au A)           
   ENMAX  =  269.532; ENMIN  =  202.149 eV                                      
   RCLOC  =    1.201    cutoff for local pot                                    
   LCOR   =        T    correct aug charges                                     
   LPAW   =        T    paw PP                                                  
   EAUG   =  544.565                                                            
   DEXC   =    0.000                                                            
   RMAX   =    2.357    core radius for proj-oper                               
   RAUG   =    1.300    factor for augmentation sphere                          
   RDEP   =    2.390    radius for radial grids                                 
   RDEPT  =    1.838    core radius for aug-charge                              
                                                                                
   Atomic configuration                                                         
    9 entries                                                                   
     n  l   j            E        occ.                                          
     1  0  0.50     -8206.4253   2.0000                                         
     2  0  0.50      -976.1748   2.0000                                         
     2  1  1.50      -839.0571   6.0000                                         
     3  0  0.50      -105.9991   2.0000                                         
     3  1  1.50       -66.4603   6.0000                                         
     3  2  2.50        -4.6458   9.0000                                         
     4  0  0.50        -4.4926   1.0000                                         
     4  1  1.50        -4.0817   0.0000                                         
     4  3  2.50        -1.3606   0.0000                                         
   Description                                                                  
     l       E           TYP  RCUT    TYP  RCUT                                 
     2     -4.6457903     23  2.300                                             
     2     -6.0063729     23  2.300                                             
     0     -4.4925590     23  2.300                                             
     0      5.0102601     23  2.300                                             
     1     -2.7211652     23  2.300                                             
     1     16.5183231     23  2.300                                             
  local pseudopotential read in
  partial core-charges read in
  partial kinetic energy density read in
  atomic valenz-charges read in
  non local Contribution for L=           2  read in
    real space projection operators read in
  non local Contribution for L=           2  read in
    real space projection operators read in
  non local Contribution for L=           0  read in
    real space projection operators read in
  non local Contribution for L=           0  read in
    real space projection operators read in
  non local Contribution for L=           1  read in
    real space projection operators read in
  non local Contribution for L=           1  read in
    real space projection operators read in
    PAW grid and wavefunctions read in

   number of l-projection  operators is LMAX  =           6
   number of lm-projection operators is LMMAX =          18

 POTCAR:    PAW_PBE Mn 06Sep2000                  
   VRHFIN =Mn: d6 s1                                                            
   LEXCH  = PE                                                                  
   EATOM  =   416.7541 eV,   30.6306 Ry                                         
                                                                                
   TITEL  = PAW_PBE Mn 06Sep2000                                                
   LULTRA =        F    use ultrasoft PP ?                                      
   IUNSCR =        1    unscreen: 0-lin 1-nonlin 2-no                           
   RPACOR =    2.000    partial core radius                                     
   POMASS =   54.938; ZVAL   =    7.000    mass and valenz                      
   RCORE  =    2.300    outmost cutoff radius                                   
   RWIGS  =    2.500; RWIGS  =    1.323    wigner-seitz radius (au A)           
   ENMAX  =  269.864; ENMIN  =  202.398 eV                                      
   RCLOC  =    1.725    cutoff for local pot                                    
   LCOR   =        T    correct aug charges                                     
   LPAW   =        T    paw PP                                                  
   EAUG   =  500.711                                                            
   DEXC   =    0.000                                                            
   RMAX   =    2.343    core radius for proj-oper                               
   RAUG   =    1.300    factor for augmentation sphere                          
   RDEP   =    2.338    radius for radial grids                                 
   RDEPT  =    1.911    core radius for aug-charge                              
                                                                                
   Atomic configuration                                                         
    9 entries                                                                   
     n  l   j            E        occ.                                          
     1  0  0.50     -6424.8288   2.0000                                         
     2  0  0.50      -739.1154   2.0000                                         
     2  1  1.50      -625.3949   6.0000                                         
     3  0  0.50       -81.6100   2.0000                                         
     3  1  1.50       -50.4667   6.0000                                         
     3  2  2.50        -3.3745   6.0000                                         
     4  0  0.50        -4.1331   1.0000                                         
     4  1  0.50        -4.0817   0.0000                                         
     4  3  2.50        -1.3606   0.0000                                         
   Description                                                                  
     l       E           TYP  RCUT    TYP  RCUT                                 
     2     -3.3744664     23  2.300                                             
     2     -4.7350490     23  2.300                                             
     0     -4.1331408     23  2.300                                             
     0      7.6656614     23  2.300                                             
     1     -2.7211652     23  2.300                                             
     1     20.4087390     23  2.300                                             
  local pseudopotential read in
  partial core-charges read in
  partial kinetic energy density read in
  atomic valenz-charges read in
  non local Contribution for L=           2  read in
    real space projection operators read in
  non local Contribution for L=           2  read in
    real space projection operators read in
  non local Contribution for L=           0  read in
    real space projection operators read in
  non local Contribution for L=           0  read in
    real space projection operators read in
  non local Contribution for L=           1  read in
    real space projection operators read in
  non local Contribution for L=           1  read in
    real space projection operators read in
    PAW grid and wavefunctions read in

   number of l-projection  operators is LMAX  =           6
   number of lm-projection operators is LMMAX =          18

 POTCAR:    PAW_PBE In 08Apr2002                  
   VRHFIN =In: s2p1                                                             
   LEXCH  = PE                                                                  
   EATOM  =    53.7908 eV,    3.9535 Ry                                         
                                                                                
   TITEL  = PAW_PBE In 08Apr2002                                                
   LULTRA =        F    use ultrasoft PP ?                                      
   IUNSCR =        1    unscreen: 0-lin 1-nonlin 2-no                           
   RPACOR =    2.400    partial core radius                                     
   POMASS =  114.820; ZVAL   =    3.000    mass and valenz                      
   RCORE  =    3.100    outmost cutoff radius                                   
   RWIGS  =    3.170; RWIGS  =    1.677    wigner-seitz radius (au A)           
   ENMAX  =   95.934; ENMIN  =   71.951 eV                                      
   ICORE  =        3    local potential                                         
   LCOR   =        T    correct aug charges                                     
   LPAW   =        T    paw PP                                                  
   EAUG   =  237.125                                                            
   DEXC   =    0.000                                                            
   RMAX   =    3.168    core radius for proj-oper                               
   RAUG   =    1.300    factor for augmentation sphere                          
   RDEP   =    3.187    radius for radial grids                                 
   RDEPT  =    2.711    core radius for aug-charge                              
                                                                                
   Atomic configuration                                                         
   13 entries                                                                   
     n  l   j            E        occ.                                          
     1  0  0.50    -27747.9169   2.0000                                         
     2  0  0.50     -4154.4438   2.0000                                         
     2  1  1.50     -3728.4305   6.0000                                         
     3  0  0.50      -788.3680   2.0000                                         
     3  1  1.50      -648.9215   6.0000                                         
     3  2  2.50      -432.5893  10.0000                                         
     4  0  0.50      -119.6363   2.0000                                         
     4  1  1.50       -78.1086   6.0000                                         
     4  2  2.50       -18.6227  10.0000                                         
     5  0  0.50        -8.2107   2.0000                                         
     5  1  0.50        -2.5185   1.0000                                         
     5  2  2.50        -1.3606   0.0000                                         
     4  3  2.50        -2.7212   0.0000                                         
   Description                                                                  
     l       E           TYP  RCUT    TYP  RCUT                                 
     0     -8.2107306     23  3.100                                             
     0     -6.1485975     23  3.100                                             
     1     -2.5184867     23  3.100                                             
     1      3.2427302     23  3.100                                             
     2     -1.3605826     23  3.100                                             
     3     -1.3605826     23  3.100                                             
  local pseudopotential read in
  partial core-charges read in
  partial kinetic energy density read in
  atomic valenz-charges read in
  non local Contribution for L=           0  read in
    real space projection operators read in
  non local Contribution for L=           0  read in
    real space projection operators read in
  non local Contribution for L=           1  read in
    real space projection operators read in
  non local Contribution for L=           1  read in
    real space projection operators read in
  non local Contribution for L=           2  read in
    real space projection operators read in
    PAW grid and wavefunctions read in

   number of l-projection  operators is LMAX  =           5
   number of lm-projection operators is LMMAX =          13

 Optimization of the real space projectors (new method)

 maximal supplied QI-value         = 16.25
 optimisation between [QCUT,QGAM] = [ 11.86, 23.89] = [ 39.41,159.82] Ry 
 Optimized for a Real-space Cutoff    1.33 Angstroem

   l    n(q)    QCUT    max X(q) W(low)/X(q) W(high)/X(q)  e(spline) 
   2      9    11.864    60.317    0.21E-03    0.51E-03    0.25E-06
   2      9    11.864    55.921    0.21E-03    0.51E-03    0.26E-06
   0      9    11.864    51.690    0.22E-03    0.30E-04    0.17E-06
   0      9    11.864    30.015    0.20E-03    0.28E-04    0.15E-06
   1      9    11.864    18.849    0.76E-04    0.33E-03    0.17E-06
   1      9    11.864    14.624    0.60E-04    0.28E-03    0.15E-06
 Optimization of the real space projectors (new method)

 maximal supplied QI-value         = 16.25
 optimisation between [QCUT,QGAM] = [ 11.86, 23.89] = [ 39.41,159.82] Ry 
 Optimized for a Real-space Cutoff    1.36 Angstroem

   l    n(q)    QCUT    max X(q) W(low)/X(q) W(high)/X(q)  e(spline) 
   2      9    11.864   110.144    0.49E-03    0.50E-03    0.21E-06
   2      9    11.864   103.200    0.49E-03    0.51E-03    0.22E-06
   0     10    11.864    68.437    0.12E-03    0.41E-04    0.21E-06
   0     10    11.864    33.971    0.11E-03    0.36E-04    0.19E-06
   1      9    11.864    17.065    0.24E-03    0.26E-03    0.93E-07
   1      9    11.864    12.540    0.19E-03    0.20E-03    0.80E-07
 Optimization of the real space projectors (new method)

 maximal supplied QI-value         = 12.09
 optimisation between [QCUT,QGAM] = [ 11.97, 23.95] = [ 40.14,160.58] Ry 
 Optimized for a Real-space Cutoff    1.63 Angstroem

   l    n(q)    QCUT    max X(q) W(low)/X(q) W(high)/X(q)  e(spline) 
   0     12    11.973   106.980    0.33E-03    0.16E-03    0.25E-05
   0     12    11.973    81.086    0.37E-03    0.18E-03    0.28E-05
   1     11    11.973    53.097    0.22E-03    0.42E-03    0.40E-05
   1     11    11.973    32.621    0.20E-03    0.40E-03    0.37E-05
   2     11    11.973     8.820    0.30E-03    0.17E-03    0.41E-06
  PAW_PBE Ni 02Aug2007                  :
 energy of atom  1       EATOM=-1077.6739
 kinetic energy error for atom=    0.0027 (will be added to EATOM!!)
  PAW_PBE Mn 06Sep2000                  :
 energy of atom  2       EATOM= -416.7541
 kinetic energy error for atom=    0.0022 (will be added to EATOM!!)
  PAW_PBE In 08Apr2002                  :
 energy of atom  3       EATOM=  -53.7908
 kinetic energy error for atom=    0.0000 (will be added to EATOM!!)


 POSCAR: Ni2MnIn                                 
  positions in direct lattice
  velocities in cartesian coordinates
 exchange correlation table for  LEXCH =        8
   RHO(1)=    0.500       N(1)  =     2000
   RHO(2)=  100.500       N(2)  =     4000



--------------------------------------------------------------------------------------------------------


 ion  position               nearest neighbor table
   1  0.250  0.250  0.268-  14 2.52  13 2.52  11 2.52  12 2.52  10 2.64  15 2.65  16 2.65   9 2.65
                             5 2.76   3 2.98   2 2.98   2 2.99   3 2.99
   2  0.750  0.250  0.268-  14 2.52  13 2.52  11 2.52  12 2.52  10 2.64  15 2.65  16 2.65   9 2.65
                             6 2.76   4 2.98   1 2.98   4 2.99   1 2.99
   3  0.250  0.750  0.268-  14 2.52  13 2.52  11 2.52  12 2.52  10 2.64  15 2.65  16 2.65   9 2.65
                             7 2.76   4 2.98   1 2.98   1 2.99   4 2.99
   4  0.750  0.750  0.268-  14 2.52  13 2.52  11 2.52  12 2.52  10 2.64  15 2.65  16 2.65   9 2.65
                             8 2.76   3 2.98   2 2.98   2 2.99   3 2.99
   5  0.250  0.250  0.732-  14 2.52  13 2.52  11 2.52  12 2.52  10 2.64  15 2.65  16 2.65   9 2.65
                             1 2.76   6 2.98   7 2.98   6 2.99   7 2.99
   6  0.750  0.250  0.732-  14 2.52  13 2.52  11 2.52  12 2.52  10 2.64  15 2.65  16 2.65   9 2.65
                             2 2.76   5 2.98   8 2.98   8 2.99   5 2.99
   7  0.250  0.750  0.732-  14 2.52  13 2.52  11 2.52  12 2.52  10 2.64  15 2.65  16 2.65   9 2.65
                             3 2.76   5 2.98   8 2.98   5 2.99   8 2.99
   8  0.750  0.750  0.732-  14 2.52  13 2.52  11 2.52  12 2.52  10 2.64  15 2.65  16 2.65   9 2.65
                             4 2.76   6 2.98   7 2.98   6 2.99   7 2.99
   9  0.500  0.000  0.000-   1 2.65   2 2.65   3 2.65   4 2.65   5 2.65   6 2.65   7 2.65   8 2.65
                            12 2.98  15 2.98  16 2.98  12 2.98  16 2.98  15 2.98
  10  0.000  0.500  0.000-   1 2.64   2 2.64   3 2.64   4 2.64   5 2.64   6 2.64   7 2.64   8 2.64
                            14 2.98  15 2.98  16 2.98  14 2.98  15 2.98  16 2.98
  11  0.000  0.000  0.500-   1 2.52   2 2.52   3 2.52   4 2.52   5 2.52   6 2.52   7 2.52   8 2.52
                            12 2.98  14 2.98  15 2.98  15 2.98  14 2.98  12 2.98
  12  0.500  0.000  0.500-   1 2.52   2 2.52   3 2.52   4 2.52   5 2.52   6 2.52   7 2.52   8 2.52
                             9 2.98  11 2.98  13 2.98   9 2.98  13 2.98  11 2.98
  13  0.500  0.500  0.500-   1 2.52   2 2.52   3 2.52   4 2.52   5 2.52   6 2.52   7 2.52   8 2.52
                            12 2.98  14 2.98  16 2.98  16 2.98  12 2.98  14 2.98
  14  0.000  0.500  0.500-   1 2.52   2 2.52   3 2.52   4 2.52   5 2.52   6 2.52   7 2.52   8 2.52
                            10 2.98  11 2.98  13 2.98  10 2.98  11 2.98  13 2.98
  15  0.000  0.000  0.000-   1 2.65   2 2.65   3 2.65   4 2.65   5 2.65   6 2.65   7 2.65   8 2.65
                             9 2.98  10 2.98  11 2.98  11 2.98  10 2.98   9 2.98
  16  0.500  0.500  0.000-   1 2.65   2 2.65   3 2.65   4 2.65   5 2.65   6 2.65   7 2.65   8 2.65
                             9 2.98  10 2.98  13 2.98  13 2.98   9 2.98  10 2.98

  LATTYP: Found a simple cubic cell.
 ALAT       =     5.9606262545
  
  Lattice vectors:
  
 A1 = (   5.9606262545,   0.0000000000,   0.0000000000)
 A2 = (   0.0000000000,   5.9606262545,   0.0000000000)
 A3 = (   0.0000000000,   0.0000000000,   5.9606262545)


Analysis of symmetry for initial positions (statically):
=====================================================================
 Subroutine PRICEL returns:
 Original cell was already a primitive cell.
 

 Routine SETGRP: Setting up the symmetry group for a 
 simple cubic supercell.


 Subroutine GETGRP returns: Found 16 space group operations
 (whereof  8 operations were pure point group operations)
 out of a pool of 48 trial point group operations.


The static configuration has the point symmetry D_2h.
 The point group associated with its full space group is D_4h.


Analysis of symmetry for dynamics (positions and initial velocities):
=====================================================================
 Subroutine PRICEL returns:
 Original cell was already a primitive cell.
 

 Routine SETGRP: Setting up the symmetry group for a 
 simple cubic supercell.


 Subroutine GETGRP returns: Found 16 space group operations
 (whereof  8 operations were pure point group operations)
 out of a pool of 48 trial point group operations.


The dynamic configuration has the point symmetry D_2h.
 The point group associated with its full space group is D_4h.


Analysis of structural, dynamic, and magnetic symmetry:
=====================================================================
 Subroutine PRICEL returns:
 Original cell was already a primitive cell.
 

 Routine SETGRP: Setting up the symmetry group for a 
 simple cubic supercell.


 Subroutine GETGRP returns: Found 16 space group operations
 (whereof  8 operations were pure point group operations)
 out of a pool of 48 trial point group operations.


The magnetic configuration has the point symmetry D_2h.
 The point group associated with its full space group is D_4h.


 Subroutine INISYM returns: Found 16 space group operations
 (whereof  8 operations are pure point group operations),
 and found     1 'primitive' translations



 KPOINTS: k-points                                

Automatic generation of k-mesh.
Space group operators:
 irot       det(A)        alpha          n_x          n_y          n_z        tau_x        tau_y        tau_z
    1     1.000000     0.000001     1.000000     0.000000     0.000000     0.000000     0.000000     0.000000
    2    -1.000000     0.000001     1.000000     0.000000     0.000000     0.000000     0.000000     0.000000
    3     1.000000   180.000000     0.000000     0.000000     1.000000     0.000000     0.000000     0.000000
    4    -1.000000   180.000000     0.000000     0.000000     1.000000     0.000000     0.000000     0.000000
    5     1.000000   180.000000     1.000000     0.000000     0.000000     0.000000     0.000000     0.000000
    6    -1.000000   180.000000     1.000000     0.000000     0.000000     0.000000     0.000000     0.000000
    7     1.000000   180.000000     0.000000     1.000000     0.000000     0.000000     0.000000     0.000000
    8    -1.000000   180.000000     0.000000     1.000000     0.000000     0.000000     0.000000     0.000000
    9     1.000000    90.000000     0.000000     0.000000    -1.000000     0.500000     0.500000     0.000000
   10    -1.000000    90.000000     0.000000     0.000000    -1.000000     0.500000     0.500000     0.000000
   11     1.000000    90.000000     0.000000     0.000000     1.000000     0.500000     0.500000     0.000000
   12    -1.000000    90.000000     0.000000     0.000000     1.000000     0.500000     0.500000     0.000000
   13     1.000000   180.000000     0.707107     0.707107     0.000000     0.500000     0.500000     0.000000
   14    -1.000000   180.000000     0.707107     0.707107     0.000000     0.500000     0.500000     0.000000
   15     1.000000   180.000000     0.707107    -0.707107     0.000000     0.500000     0.500000     0.000000
   16    -1.000000   180.000000     0.707107    -0.707107     0.000000     0.500000     0.500000     0.000000
 
 Subroutine IBZKPT returns following result:
 ===========================================
 
 Found     40 irreducible k-points:
 
 Following reciprocal coordinates:
            Coordinates               Weight
  0.000000  0.000000  0.000000      1.000000
  0.142857  0.000000  0.000000      4.000000
  0.285714  0.000000  0.000000      4.000000
  0.428571  0.000000  0.000000      4.000000
  0.142857  0.142857  0.000000      4.000000
  0.285714  0.142857  0.000000      8.000000
  0.428571  0.142857  0.000000      8.000000
  0.285714  0.285714  0.000000      4.000000
  0.428571  0.285714  0.000000      8.000000
  0.428571  0.428571  0.000000      4.000000
  0.000000  0.000000  0.142857      2.000000
  0.142857  0.000000  0.142857      8.000000
  0.285714  0.000000  0.142857      8.000000
  0.428571  0.000000  0.142857      8.000000
  0.142857  0.142857  0.142857      8.000000
  0.285714  0.142857  0.142857     16.000000
  0.428571  0.142857  0.142857     16.000000
  0.285714  0.285714  0.142857      8.000000
  0.428571  0.285714  0.142857     16.000000
  0.428571  0.428571  0.142857      8.000000
  0.000000  0.000000  0.285714      2.000000
  0.142857  0.000000  0.285714      8.000000
  0.285714  0.000000  0.285714      8.000000
  0.428571  0.000000  0.285714      8.000000
  0.142857  0.142857  0.285714      8.000000
  0.285714  0.142857  0.285714     16.000000
  0.428571  0.142857  0.285714     16.000000
  0.285714  0.285714  0.285714      8.000000
  0.428571  0.285714  0.285714     16.000000
  0.428571  0.428571  0.285714      8.000000
  0.000000  0.000000  0.428571      2.000000
  0.142857  0.000000  0.428571      8.000000
  0.285714  0.000000  0.428571      8.000000
  0.428571  0.000000  0.428571      8.000000
  0.142857  0.142857  0.428571      8.000000
  0.285714  0.142857  0.428571     16.000000
  0.428571  0.142857  0.428571     16.000000
  0.285714  0.285714  0.428571      8.000000
  0.428571  0.285714  0.428571     16.000000
  0.428571  0.428571  0.428571      8.000000
 
 Following cartesian coordinates:
            Coordinates               Weight
  0.000000  0.000000  0.000000      1.000000
  0.138049  0.000000  0.000000      4.000000
  0.276098  0.000000  0.000000      4.000000
  0.414146  0.000000  0.000000      4.000000
  0.138049  0.138049  0.000000      4.000000
  0.276098  0.138049  0.000000      8.000000
  0.414146  0.138049  0.000000      8.000000
  0.276098  0.276098  0.000000      4.000000
  0.414146  0.276098  0.000000      8.000000
  0.414146  0.414146  0.000000      4.000000
  0.000000  0.000000  0.138049      2.000000
  0.138049  0.000000  0.138049      8.000000
  0.276098  0.000000  0.138049      8.000000
  0.414146  0.000000  0.138049      8.000000
  0.138049  0.138049  0.138049      8.000000
  0.276098  0.138049  0.138049     16.000000
  0.414146  0.138049  0.138049     16.000000
  0.276098  0.276098  0.138049      8.000000
  0.414146  0.276098  0.138049     16.000000
  0.414146  0.414146  0.138049      8.000000
  0.000000  0.000000  0.276098      2.000000
  0.138049  0.000000  0.276098      8.000000
  0.276098  0.000000  0.276098      8.000000
  0.414146  0.000000  0.276098      8.000000
  0.138049  0.138049  0.276098      8.000000
  0.276098  0.138049  0.276098     16.000000
  0.414146  0.138049  0.276098     16.000000
  0.276098  0.276098  0.276098      8.000000
  0.414146  0.276098  0.276098     16.000000
  0.414146  0.414146  0.276098      8.000000
  0.000000  0.000000  0.414146      2.000000
  0.138049  0.000000  0.414146      8.000000
  0.276098  0.000000  0.414146      8.000000
  0.414146  0.000000  0.414146      8.000000
  0.138049  0.138049  0.414146      8.000000
  0.276098  0.138049  0.414146     16.000000
  0.414146  0.138049  0.414146     16.000000
  0.276098  0.276098  0.414146      8.000000
  0.414146  0.276098  0.414146     16.000000
  0.414146  0.414146  0.414146      8.000000
 


--------------------------------------------------------------------------------------------------------




 Dimension of arrays:
   k-points           NKPTS =     40   k-points in BZ     NKDIM =     40   number of bands    NBANDS=     84
   number of dos      NEDOS =    301   number of ions     NIONS =     16
   non local maximal  LDIM  =      6   non local SUM 2l+1 LMDIM =     18
   total plane-waves  NPLWV =  46656
   max r-space proj   IRMAX =   4044   max aug-charges    IRDMAX=  25050
   dimension x,y,z NGX =    36 NGY =   36 NGZ =   36
   dimension x,y,z NGXF=    72 NGYF=   72 NGZF=   72
   support grid    NGXF=    72 NGYF=   72 NGZF=   72
   ions per type =               8   6   2
   NGX,Y,Z   is equivalent  to a cutoff of  10.04, 10.04, 10.04 a.u.
   NGXF,Y,Z  is equivalent  to a cutoff of  20.08, 20.08, 20.08 a.u.

 SYSTEM =  Testrun for NiMnIn                      
 POSCAR =  Ni2MnIn                                 

 Startparameter for this run:
   NWRITE =      2    write-flag & timer
   PREC   = normal    normal or accurate (medium, high low for compatibility)
   ISTART =      0    job   : 0-new  1-cont  2-samecut
   ICHARG =      2    charge: 1-file 2-atom 10-const
   ISPIN  =      2    spin polarized calculation?
   LNONCOLLINEAR =      F non collinear calculations
   LSORBIT =      F    spin-orbit coupling
   INIWAV =      1    electr: 0-lowe 1-rand  2-diag
   LASPH  =      F    aspherical Exc in radial PAW
   METAGGA=      F    non-selfconsistent MetaGGA calc.

 Electronic Relaxation 1
   ENCUT  =  550.0 eV  40.42 Ry    6.36 a.u.  11.40 11.40 11.40*2*pi/ulx,y,z
   ENINI  =  550.0     initial cutoff
   ENAUG  =  544.6 eV  augmentation charge cutoff
   NELM   =     60;   NELMIN=  2; NELMDL= -5     # of ELM steps 
   EDIFF  = 0.1E-04   stopping-criterion for ELM
   LREAL  =      T    real-space projection
   NLSPLINE    = F    spline interpolate recip. space projectors
   LCOMPAT=      F    compatible to vasp.4.4
   GGA_COMPAT  = T    GGA compatible to vasp.4.4-vasp.4.6
   LMAXPAW     = -100 max onsite density
   LMAXMIX     =    2 max onsite mixed and CHGCAR
   VOSKOWN=      0    Vosko Wilk Nusair interpolation
   ROPT   =   -0.00050  -0.00050  -0.00050
 Ionic relaxation
   EDIFFG = -.1E-01   stopping-criterion for IOM
   NSW    =   1000    number of steps for IOM
   NBLOCK =      1;   KBLOCK =   1000    inner block; outer block 
   IBRION =      2    ionic relax: 0-MD 1-quasi-New 2-CG
   NFREE  =      1    steps in history (QN), initial steepest desc. (CG)
   ISIF   =      2    stress and relaxation
   IWAVPR =     11    prediction:  0-non 1-charg 2-wave 3-comb
   ISYM   =      2    0-nonsym 1-usesym 2-fastsym
   LCORR  =      T    Harris-Foulkes like correction to forces

   POTIM  = 0.5000    time-step for ionic-motion
   TEIN   =    0.0    initial temperature
   TEBEG  =    0.0;   TEEND  =   0.0 temperature during run
   SMASS  =  -3.00    Nose mass-parameter (am)
   estimated Nose-frequenzy (Omega)   =  0.10E-29 period in steps =****** mass=  -0.812E-27a.u.
   SCALEE = 1.0000    scale energy and forces
   NPACO  =    256;   APACO  = 16.0  distance and # of slots for P.C.
   PSTRESS=    0.0 pullay stress

  Mass of Ions in am
   POMASS =  58.69 54.94114.82
  Ionic Valenz
   ZVAL   =  10.00  7.00  3.00
  Atomic Wigner-Seitz radii
   RWIGS  =  -1.00 -1.00 -1.00
  virtual crystal weights 
   VCA    =   1.00  1.00  1.00
   NELECT =     128.0000    total number of electrons
   NUPDOWN=      -1.0000    fix difference up-down

 DOS related values:
   EMIN   =  10.00;   EMAX   =-10.00  energy-range for DOS
   EFERMI =   0.00
   ISMEAR =     0;   SIGMA  =   0.02  broadening in eV -4-tet -1-fermi 0-gaus

 Electronic relaxation 2 (details)
   IALGO  =     68    algorithm
   LDIAG  =      T    sub-space diagonalisation (order eigenvalues)
   LSUBROT=      F    optimize rotation matrix (better conditioning)
   TURBO    =      0    0=normal 1=particle mesh
   IRESTART =      0    0=no restart 2=restart with 2 vectors
   NREBOOT  =      0    no. of reboots
   NMIN     =      0    reboot dimension
   EREF     =   0.00    reference energy to select bands
   IMIX   =      4    mixing-type and parameters
     AMIX     =   0.40;   BMIX     =  1.00
     AMIX_MAG =   1.60;   BMIX_MAG =  1.00
     AMIN     =   0.10
     WC   =   100.;   INIMIX=   1;  MIXPRE=   1;  MAXMIX= -45

 Intra band minimization:
   WEIMIN = 0.0010     energy-eigenvalue tresh-hold
   EBREAK =  0.30E-07  absolut break condition
   DEPER  =   0.30     relativ break condition  

   TIME   =   0.40     timestep for ELM

  volume/ion in A,a.u.               =      13.24        89.32
  Fermi-wavevector in a.u.,A,eV,Ry     =   1.384160  2.615683 26.067383  1.915899
  Thomas-Fermi vector in A             =   2.508690

 Write flags
   LWAVE        =      F    write WAVECAR
   LDOWNSAMPLE  =      F    k-point downsampling of WAVECAR
   LCHARG       =      T    write CHGCAR
   LVTOT        =      F    write LOCPOT, total local potential
   LVHAR        =      F    write LOCPOT, Hartree potential only
   LELF         =      F    write electronic localiz. function (ELF)
   LORBIT       =     11    0 simple, 1 ext, 2 COOP (PROOUT), +10 PAW based schemes


 Dipole corrections
   LMONO  =      F    monopole corrections only (constant potential shift)
   LDIPOL =      F    correct potential (dipole corrections)
   IDIPOL =      0    1-x, 2-y, 3-z, 4-all directions 
   EPSILON=  1.0000000 bulk dielectric constant

 Exchange correlation treatment:
   GGA     =    --    GGA type
   LEXCH   =     8    internal setting for exchange type
   VOSKOWN=      0    Vosko Wilk Nusair interpolation
   LHFCALC =     F    Hartree Fock is set to
   LHFONE  =     F    Hartree Fock one center treatment
   AEXX    =    0.0000 exact exchange contribution

 Linear response parameters
   LEPSILON=     F    determine dielectric tensor
   LRPA    =     F    only Hartree local field effects (RPA)
   LNABLA  =     F    use nabla operator in PAW spheres
   LVEL    =     F    velocity operator in full k-point grid
   LINTERFAST=   F  fast interpolation
   KINTER  =     0    interpolate to denser k-point grid
   CSHIFT  =0.1000    complex shift for real part using Kramers Kronig
   OMEGAMAX=  -1.0    maximum frequency
   DEG_THRESHOLD= 0.2000000E-02 threshold for treating states as degnerate
   RTIME   =   -0.100 relaxation time in fs
  (WPLASMAI=    0.000 imaginary part of plasma frequency in eV, 0.658/RTIME)
   DFIELD  = 0.0000000 0.0000000 0.0000000 field for delta impulse in time

 Orbital magnetization related:
   ORBITALMAG=     F  switch on orbital magnetization
   LCHIMAG   =     F  perturbation theory with respect to B field
   DQ        =  0.001000  dq finite difference perturbation B field
   LLRAUG    =     F  two centre corrections for induced B field



--------------------------------------------------------------------------------------------------------


 conjugate gradient relaxation of ions
 charge density and potential will be updated during run
 spin polarized calculation
 RMM-DIIS sequential band-by-band and
  variant of blocked Davidson during initial phase
 perform sub-space diagonalisation
    before iterative eigenvector-optimisation
 modified Broyden-mixing scheme, WC =      100.0
 initial mixing is a Kerker type mixing with AMIX =  0.4000 and BMIX =      1.0000
 Hartree-type preconditioning will be used
 using additional bands           20
 real space projection scheme for non local part
 use partial core corrections
 calculate Harris-corrections to forces   (improved forces if not selfconsistent)
 use gradient corrections 
 use of overlap-Matrix (Vanderbilt PP)
 Gauss-broadening in eV      SIGMA  =   0.02


--------------------------------------------------------------------------------------------------------


  energy-cutoff  :      550.00
  volume of cell :      211.78
      direct lattice vectors                 reciprocal lattice vectors
     5.960626254  0.000000000  0.000000000     0.167767607  0.000000000  0.000000000
     0.000000000  5.960626254  0.000000000     0.000000000  0.167767607  0.000000000
     0.000000000  0.000000000  5.960626254     0.000000000  0.000000000  0.167767607

  length of vectors
     5.960626254  5.960626254  5.960626254     0.167767607  0.167767607  0.167767607



 k-points in units of 2pi/SCALE and weight: k-points                                
   0.00000000  0.00000000  0.00000000       0.003
   0.13804877  0.00000000  0.00000000       0.012
   0.27609755  0.00000000  0.00000000       0.012
   0.41414632  0.00000000  0.00000000       0.012
   0.13804877  0.13804877  0.00000000       0.012
   0.27609755  0.13804877  0.00000000       0.023
   0.41414632  0.13804877  0.00000000       0.023
   0.27609755  0.27609755  0.00000000       0.012
   0.41414632  0.27609755  0.00000000       0.023
   0.41414632  0.41414632  0.00000000       0.012
   0.00000000  0.00000000  0.13804877       0.006
   0.13804877  0.00000000  0.13804877       0.023
   0.27609755  0.00000000  0.13804877       0.023
   0.41414632  0.00000000  0.13804877       0.023
   0.13804877  0.13804877  0.13804877       0.023
   0.27609755  0.13804877  0.13804877       0.047
   0.41414632  0.13804877  0.13804877       0.047
   0.27609755  0.27609755  0.13804877       0.023
   0.41414632  0.27609755  0.13804877       0.047
   0.41414632  0.41414632  0.13804877       0.023
   0.00000000  0.00000000  0.27609755       0.006
   0.13804877  0.00000000  0.27609755       0.023
   0.27609755  0.00000000  0.27609755       0.023
   0.41414632  0.00000000  0.27609755       0.023
   0.13804877  0.13804877  0.27609755       0.023
   0.27609755  0.13804877  0.27609755       0.047
   0.41414632  0.13804877  0.27609755       0.047
   0.27609755  0.27609755  0.27609755       0.023
   0.41414632  0.27609755  0.27609755       0.047
   0.41414632  0.41414632  0.27609755       0.023
   0.00000000  0.00000000  0.41414632       0.006
   0.13804877  0.00000000  0.41414632       0.023
   0.27609755  0.00000000  0.41414632       0.023
   0.41414632  0.00000000  0.41414632       0.023
   0.13804877  0.13804877  0.41414632       0.023
   0.27609755  0.13804877  0.41414632       0.047
   0.41414632  0.13804877  0.41414632       0.047
   0.27609755  0.27609755  0.41414632       0.023
   0.41414632  0.27609755  0.41414632       0.047
   0.41414632  0.41414632  0.41414632       0.023

 k-points in reciprocal lattice and weights: k-points                                
   0.00000000  0.00000000  0.00000000       0.003
   0.14285714  0.00000000  0.00000000       0.012
   0.28571429  0.00000000  0.00000000       0.012
   0.42857143  0.00000000  0.00000000       0.012
   0.14285714  0.14285714  0.00000000       0.012
   0.28571429  0.14285714  0.00000000       0.023
   0.42857143  0.14285714  0.00000000       0.023
   0.28571429  0.28571429  0.00000000       0.012
   0.42857143  0.28571429  0.00000000       0.023
   0.42857143  0.42857143  0.00000000       0.012
   0.00000000  0.00000000  0.14285714       0.006
   0.14285714  0.00000000  0.14285714       0.023
   0.28571429  0.00000000  0.14285714       0.023
   0.42857143  0.00000000  0.14285714       0.023
   0.14285714  0.14285714  0.14285714       0.023
   0.28571429  0.14285714  0.14285714       0.047
   0.42857143  0.14285714  0.14285714       0.047
   0.28571429  0.28571429  0.14285714       0.023
   0.42857143  0.28571429  0.14285714       0.047
   0.42857143  0.42857143  0.14285714       0.023
   0.00000000  0.00000000  0.28571429       0.006
   0.14285714  0.00000000  0.28571429       0.023
   0.28571429  0.00000000  0.28571429       0.023
   0.42857143  0.00000000  0.28571429       0.023
   0.14285714  0.14285714  0.28571429       0.023
   0.28571429  0.14285714  0.28571429       0.047
   0.42857143  0.14285714  0.28571429       0.047
   0.28571429  0.28571429  0.28571429       0.023
   0.42857143  0.28571429  0.28571429       0.047
   0.42857143  0.42857143  0.28571429       0.023
   0.00000000  0.00000000  0.42857143       0.006
   0.14285714  0.00000000  0.42857143       0.023
   0.28571429  0.00000000  0.42857143       0.023
   0.42857143  0.00000000  0.42857143       0.023
   0.14285714  0.14285714  0.42857143       0.023
   0.28571429  0.14285714  0.42857143       0.047
   0.42857143  0.14285714  0.42857143       0.047
   0.28571429  0.28571429  0.42857143       0.023
   0.42857143  0.28571429  0.42857143       0.047
   0.42857143  0.42857143  0.42857143       0.023

 position of ions in fractional coordinates (direct lattice) 
   0.24955833  0.25044167  0.26843304
   0.75044167  0.25044167  0.26843304
   0.24955833  0.74955833  0.26843304
   0.75044167  0.74955833  0.26843304
   0.24955833  0.25044167  0.73156696
   0.75044167  0.25044167  0.73156696
   0.24955833  0.74955833  0.73156696
   0.75044167  0.74955833  0.73156696
   0.50000000  0.00000000  0.00000000
   0.00000000  0.50000000  0.00000000
   0.00000000  0.00000000  0.50000000
   0.50000000  0.00000000  0.50000000
   0.50000000  0.50000000  0.50000000
   0.00000000  0.50000000  0.50000000
   0.00000000  0.00000000  0.00000000
   0.50000000  0.50000000  0.00000000

 position of ions in cartesian coordinates  (Angst):
   1.48752391  1.49278922  1.60002902
   4.47310234  1.49278922  1.60002902
   1.48752391  4.46783704  1.60002902
   4.47310234  4.46783704  1.60002902
   1.48752391  1.49278922  4.36059723
   4.47310234  1.49278922  4.36059723
   1.48752391  4.46783704  4.36059723
   4.47310234  4.46783704  4.36059723
   2.98031313  0.00000000  0.00000000
   0.00000000  2.98031313  0.00000000
   0.00000000  0.00000000  2.98031313
   2.98031313  0.00000000  2.98031313
   2.98031313  2.98031313  2.98031313
   0.00000000  2.98031313  2.98031313
   0.00000000  0.00000000  0.00000000
   2.98031313  2.98031313  0.00000000



--------------------------------------------------------------------------------------------------------


 k-point  1 :   0.0000 0.0000 0.0000  plane waves:    6187
 k-point  2 :   0.1429 0.0000 0.0000  plane waves:    6195
 k-point  3 :   0.2857 0.0000 0.0000  plane waves:    6195
 k-point  4 :   0.4286 0.0000 0.0000  plane waves:    6218
 k-point  5 :   0.1429 0.1429 0.0000  plane waves:    6220
 k-point  6 :   0.2857 0.1429 0.0000  plane waves:    6222
 k-point  7 :   0.4286 0.1429 0.0000  plane waves:    6199
 k-point  8 :   0.2857 0.2857 0.0000  plane waves:    6202
 k-point  9 :   0.4286 0.2857 0.0000  plane waves:    6196
 k-point 10 :   0.4286 0.4286 0.0000  plane waves:    6200
 k-point 11 :   0.0000 0.0000 0.1429  plane waves:    6195
 k-point 12 :   0.1429 0.0000 0.1429  plane waves:    6220
 k-point 13 :   0.2857 0.0000 0.1429  plane waves:    6222
 k-point 14 :   0.4286 0.0000 0.1429  plane waves:    6199
 k-point 15 :   0.1429 0.1429 0.1429  plane waves:    6193
 k-point 16 :   0.2857 0.1429 0.1429  plane waves:    6206
 k-point 17 :   0.4286 0.1429 0.1429  plane waves:    6208
 k-point 18 :   0.2857 0.2857 0.1429  plane waves:    6210
 k-point 19 :   0.4286 0.2857 0.1429  plane waves:    6203
 k-point 20 :   0.4286 0.4286 0.1429  plane waves:    6213
 k-point 21 :   0.0000 0.0000 0.2857  plane waves:    6195
 k-point 22 :   0.1429 0.0000 0.2857  plane waves:    6222
 k-point 23 :   0.2857 0.0000 0.2857  plane waves:    6202
 k-point 24 :   0.4286 0.0000 0.2857  plane waves:    6196
 k-point 25 :   0.1429 0.1429 0.2857  plane waves:    6206
 k-point 26 :   0.2857 0.1429 0.2857  plane waves:    6210
 k-point 27 :   0.4286 0.1429 0.2857  plane waves:    6203
 k-point 28 :   0.2857 0.2857 0.2857  plane waves:    6211
 k-point 29 :   0.4286 0.2857 0.2857  plane waves:    6196
 k-point 30 :   0.4286 0.4286 0.2857  plane waves:    6178
 k-point 31 :   0.0000 0.0000 0.4286  plane waves:    6218
 k-point 32 :   0.1429 0.0000 0.4286  plane waves:    6199
 k-point 33 :   0.2857 0.0000 0.4286  plane waves:    6196
 k-point 34 :   0.4286 0.0000 0.4286  plane waves:    6200
 k-point 35 :   0.1429 0.1429 0.4286  plane waves:    6208
 k-point 36 :   0.2857 0.1429 0.4286  plane waves:    6203
 k-point 37 :   0.4286 0.1429 0.4286  plane waves:    6213
 k-point 38 :   0.2857 0.2857 0.4286  plane waves:    6196
 k-point 39 :   0.4286 0.2857 0.4286  plane waves:    6178
 k-point 40 :   0.4286 0.4286 0.4286  plane waves:    6149

 maximum and minimum number of plane-waves per node :      6222     6149

 maximum number of plane-waves:      6222
 maximum index in each direction: 
   IXMAX=   11   IYMAX=   11   IZMAX=   11
   IXMIN=  -11   IYMIN=  -11   IZMIN=  -11


 serial   3D FFT for wavefunctions
 parallel 3D FFT for charge:
    minimum data exchange during FFTs selected (reduces bandwidth)


 total amount of memory used by VASP MPI-rank0   103512. kBytes
=======================================================================

   base      :      30000. kBytes
   nonlr-proj:       6790. kBytes
   fftplans  :       1269. kBytes
   grid      :       6573. kBytes
   one-center:        497. kBytes
   wavefun   :      58383. kBytes

     INWAV:  cpu time    0.0000: real time    0.0000
 Broyden mixing: mesh for mixing (old mesh)
   NGX = 23   NGY = 23   NGZ = 23
  (NGX  = 72   NGY  = 72   NGZ  = 72)
  gives a total of  12167 points

 initial charge density was supplied:
 charge density of overlapping atoms calculated
 number of electron     128.0000000 magnetization       8.8000000
 keeping initial charge density in first step


--------------------------------------------------------------------------------------------------------


 Maximum index for non-local projection operator         3887
 Maximum index for augmentation-charges         2111 (set IRDMAX)


--------------------------------------------------------------------------------------------------------


 First call to EWALD:  gamma=   0.297
 Maximum number of real-space cells 3x 3x 3
 Maximum number of reciprocal cells 3x 3x 3

    FEWALD:  cpu time    0.0021: real time    0.0021


--------------------------------------- Iteration      1(   1)  ---------------------------------------


    POTLOK:  cpu time    0.0995: real time    0.1011
    SETDIJ:  cpu time    0.0354: real time    0.0355
     EDDAV:  cpu time   23.8832: real time   23.9185
       DOS:  cpu time    0.0036: real time    0.0036
    --------------------------------------------
      LOOP:  cpu time   24.0217: real time   24.0587

 eigenvalue-minimisations  : 13440
 total energy-change (2. order) : 0.1066033E+04  (-0.5419949E+04)
 number of electron     128.0000000 magnetization       8.8000000
 augmentation part      128.0000000 magnetization       8.8000000

 Free energy of the ion-electron system (eV)
  ---------------------------------------------------
  alpha Z        PSCENC =       531.33898629
  Ewald energy   TEWEN  =     -9284.53257308
  -Hartree energ DENC   =     -3141.67519705
  -exchange      EXHF   =         0.00000000
  -V(xc)+E(xc)   XCENC  =        78.37202761
  PAW double counting   =     10320.96726947   -10647.99417394
  entropy T*S    EENTRO =        -0.00211290
  eigenvalues    EBANDS =      1980.09677019
  atomic energy  EATOM  =     11229.46195210
  Solvation  Ediel_sol  =         0.00000000
  ---------------------------------------------------
  free energy    TOTEN  =      1066.03294869 eV

  energy without entropy =     1066.03506159  energy(sigma->0) =     1066.03400514


--------------------------------------------------------------------------------------------------------




--------------------------------------- Iteration      1(   2)  ---------------------------------------


     EDDAV:  cpu time   24.8082: real time   24.8438
       DOS:  cpu time    0.0037: real time    0.0038
    --------------------------------------------
      LOOP:  cpu time   24.8118: real time   24.8476

 eigenvalue-minimisations  : 13440
 total energy-change (2. order) :-0.1065147E+04  (-0.1032041E+04)
 number of electron     128.0000000 magnetization       8.8000000
 augmentation part      128.0000000 magnetization       8.8000000

 Free energy of the ion-electron system (eV)
  ---------------------------------------------------
  alpha Z        PSCENC =       531.33898629
  Ewald energy   TEWEN  =     -9284.53257308
  -Hartree energ DENC   =     -3141.67519705
  -exchange      EXHF   =         0.00000000
  -V(xc)+E(xc)   XCENC  =        78.37202761
  PAW double counting   =     10320.96726947   -10647.99417394
  entropy T*S    EENTRO =        -0.00223479
  eigenvalues    EBANDS =       914.95026141
  atomic energy  EATOM  =     11229.46195210
  Solvation  Ediel_sol  =         0.00000000
  ---------------------------------------------------
  free energy    TOTEN  =         0.88631802 eV

  energy without entropy =        0.88855281  energy(sigma->0) =        0.88743542


--------------------------------------------------------------------------------------------------------




--------------------------------------- Iteration      1(   3)  ---------------------------------------


     EDDAV:  cpu time   26.3130: real time   26.3540
       DOS:  cpu time    0.0037: real time    0.0038
    --------------------------------------------
      LOOP:  cpu time   26.3166: real time   26.3578

 eigenvalue-minimisations  : 15144
 total energy-change (2. order) :-0.1103693E+03  (-0.9910887E+02)
 number of electron     128.0000000 magnetization       8.8000000
 augmentation part      128.0000000 magnetization       8.8000000

 Free energy of the ion-electron system (eV)
  ---------------------------------------------------
  alpha Z        PSCENC =       531.33898629
  Ewald energy   TEWEN  =     -9284.53257308
  -Hartree energ DENC   =     -3141.67519705
  -exchange      EXHF   =         0.00000000
  -V(xc)+E(xc)   XCENC  =        78.37202761
  PAW double counting   =     10320.96726947   -10647.99417394
  entropy T*S    EENTRO =        -0.00334048
  eigenvalues    EBANDS =       804.58208120
  atomic energy  EATOM  =     11229.46195210
  Solvation  Ediel_sol  =         0.00000000
  ---------------------------------------------------
  free energy    TOTEN  =      -109.48296788 eV

  energy without entropy =     -109.47962740  energy(sigma->0) =     -109.48129764


--------------------------------------------------------------------------------------------------------




--------------------------------------- Iteration      1(   4)  ---------------------------------------


     EDDAV:  cpu time   33.3697: real time   33.4233
       DOS:  cpu time    0.0037: real time    0.0037
    --------------------------------------------
      LOOP:  cpu time   33.3734: real time   33.4271

 eigenvalue-minimisations  : 20280
 total energy-change (2. order) :-0.6735830E+01  (-0.6345390E+01)
 number of electron     128.0000000 magnetization       8.8000000
 augmentation part      128.0000000 magnetization       8.8000000

 Free energy of the ion-electron system (eV)
  ---------------------------------------------------
  alpha Z        PSCENC =       531.33898629
  Ewald energy   TEWEN  =     -9284.53257308
  -Hartree energ DENC   =     -3141.67519705
  -exchange      EXHF   =         0.00000000
  -V(xc)+E(xc)   XCENC  =        78.37202761
  PAW double counting   =     10320.96726947   -10647.99417394
  entropy T*S    EENTRO =        -0.00376308
  eigenvalues    EBANDS =       797.84667347
  atomic energy  EATOM  =     11229.46195210
  Solvation  Ediel_sol  =         0.00000000
  ---------------------------------------------------
  free energy    TOTEN  =      -116.21879821 eV

  energy without entropy =     -116.21503513  energy(sigma->0) =     -116.21691667


--------------------------------------------------------------------------------------------------------




--------------------------------------- Iteration      1(   5)  ---------------------------------------


     EDDAV:  cpu time   32.8029: real time   32.8495
       DOS:  cpu time    0.0038: real time    0.0038
    CHARGE:  cpu time    0.7077: real time    0.7083
    MIXING:  cpu time    0.0016: real time    0.0016
    --------------------------------------------
      LOOP:  cpu time   33.5160: real time   33.5631

 eigenvalue-minimisations  : 19896
 total energy-change (2. order) :-0.2182435E+00  (-0.2172616E+00)
 number of electron     127.9999894 magnetization       7.2540092
 augmentation part       60.6710802 magnetization       4.7585793

 Broyden mixing:
  rms(total) = 0.34375E+01    rms(broyden)= 0.34374E+01
  rms(prec ) = 0.52981E+01
  weight for this iteration     100.00

 Free energy of the ion-electron system (eV)
  ---------------------------------------------------
  alpha Z        PSCENC =       531.33898629
  Ewald energy   TEWEN  =     -9284.53257308
  -Hartree energ DENC   =     -3141.67519705
  -exchange      EXHF   =         0.00000000
  -V(xc)+E(xc)   XCENC  =        78.37202761
  PAW double counting   =     10320.96726947   -10647.99417394
  entropy T*S    EENTRO =        -0.00371512
  eigenvalues    EBANDS =       797.62838198
  atomic energy  EATOM  =     11229.46195210
  Solvation  Ediel_sol  =         0.00000000
  ---------------------------------------------------
  free energy    TOTEN  =      -116.43704174 eV

  energy without entropy =     -116.43332662  energy(sigma->0) =     -116.43518418


--------------------------------------------------------------------------------------------------------




--------------------------------------- Iteration      1(   6)  ---------------------------------------


    POTLOK:  cpu time    0.1044: real time    0.1053
    SETDIJ:  cpu time    0.0370: real time    0.0370
    EDDIAG:  cpu time    3.3524: real time    3.3562
  RMM-DIIS:  cpu time   10.5309: real time   10.5491
    ORTHCH:  cpu time    0.6466: real time    0.6474
       DOS:  cpu time    0.0039: real time    0.0039
    CHARGE:  cpu time    0.7141: real time    0.7148
    MIXING:  cpu time    0.0017: real time    0.0017
    --------------------------------------------
      LOOP:  cpu time   15.3909: real time   15.4154

 eigenvalue-minimisations  : 13440
 total energy-change (2. order) : 0.7014562E+01  (-0.1611503E+02)
 number of electron     127.9999984 magnetization       8.1167920
 augmentation part       69.5004567 magnetization       5.6881769

 Broyden mixing:
  rms(total) = 0.44978E+01    rms(broyden)= 0.44977E+01
  rms(prec ) = 0.58808E+01
  weight for this iteration     100.00

 eigenvalues of (default mixing * dielectric matrix)
  average eigenvalue GAMMA=   0.2162
  0.2162

 Free energy of the ion-electron system (eV)
  ---------------------------------------------------
  alpha Z        PSCENC =       531.33898629
  Ewald energy   TEWEN  =     -9284.53257308
  -Hartree energ DENC   =     -2908.60861918
  -exchange      EXHF   =         0.00000000
  -V(xc)+E(xc)   XCENC  =        66.23501197
  PAW double counting   =     11125.04335318   -11418.43610293
  entropy T*S    EENTRO =        -0.00627484
  eigenvalues    EBANDS =       550.08178640
  atomic energy  EATOM  =     11229.46195210
  Solvation  Ediel_sol  =         0.00000000
  ---------------------------------------------------
  free energy    TOTEN  =      -109.42248009 eV

  energy without entropy =     -109.41620525  energy(sigma->0) =     -109.41934267


--------------------------------------------------------------------------------------------------------




--------------------------------------- Iteration      1(   7)  ---------------------------------------


    POTLOK:  cpu time    0.0980: real time    0.0981
    SETDIJ:  cpu time    0.0353: real time    0.0353
    EDDIAG:  cpu time    3.3168: real time    3.3228
  RMM-DIIS:  cpu time   10.5452: real time   10.5631
    ORTHCH:  cpu time    0.6489: real time    0.6497
       DOS:  cpu time    0.0037: real time    0.0037
    CHARGE:  cpu time    0.6880: real time    0.6887
    MIXING:  cpu time    0.0017: real time    0.0017
    --------------------------------------------
      LOOP:  cpu time   15.3376: real time   15.3632

 eigenvalue-minimisations  : 13465
 total energy-change (2. order) : 0.1406418E+00  (-0.2787296E+01)
 number of electron     127.9999879 magnetization       8.0387143
 augmentation part       70.5640364 magnetization       6.4114509

 Broyden mixing:
  rms(total) = 0.29925E+01    rms(broyden)= 0.29924E+01
  rms(prec ) = 0.48498E+01
  weight for this iteration     100.00

 eigenvalues of (default mixing * dielectric matrix)
  average eigenvalue GAMMA=   0.4654
  0.4654  0.4654

 Free energy of the ion-electron system (eV)
  ---------------------------------------------------
  alpha Z        PSCENC =       531.33898629
  Ewald energy   TEWEN  =     -9284.53257308
  -Hartree energ DENC   =     -2896.30560684
  -exchange      EXHF   =         0.00000000
  -V(xc)+E(xc)   XCENC  =        67.35084907
  PAW double counting   =     11418.79997523   -11718.17531122
  entropy T*S    EENTRO =        -0.00274617
  eigenvalues    EBANDS =       542.78263633
  atomic energy  EATOM  =     11229.46195210
  Solvation  Ediel_sol  =         0.00000000
  ---------------------------------------------------
  free energy    TOTEN  =      -109.28183828 eV

  energy without entropy =     -109.27909211  energy(sigma->0) =     -109.28046520


--------------------------------------------------------------------------------------------------------




--------------------------------------- Iteration      1(   8)  ---------------------------------------


    POTLOK:  cpu time    0.0985: real time    0.0989
    SETDIJ:  cpu time    0.0354: real time    0.0355
    EDDIAG:  cpu time    3.3266: real time    3.3336
  RMM-DIIS:  cpu time   10.5879: real time   10.6068
    ORTHCH:  cpu time    0.6483: real time    0.6494
       DOS:  cpu time    0.0039: real time    0.0039
    CHARGE:  cpu time    0.7024: real time    0.7032
    MIXING:  cpu time    0.0018: real time    0.0018
    --------------------------------------------
      LOOP:  cpu time   15.4048: real time   15.4330

 eigenvalue-minimisations  : 13476
 total energy-change (2. order) : 0.4564728E+01  (-0.2137239E+01)
 number of electron     127.9999966 magnetization       8.7655090
 augmentation part       67.0793149 magnetization       6.0496204

 Broyden mixing:
  rms(total) = 0.18859E+01    rms(broyden)= 0.18857E+01
  rms(prec ) = 0.33382E+01
  weight for this iteration     100.00

 eigenvalues of (default mixing * dielectric matrix)
  average eigenvalue GAMMA=   0.5070
  0.6939  0.6137  0.2133

 Free energy of the ion-electron system (eV)
  ---------------------------------------------------
  alpha Z        PSCENC =       531.33898629
  Ewald energy   TEWEN  =     -9284.53257308
  -Hartree energ DENC   =     -2962.57035526
  -exchange      EXHF   =         0.00000000
  -V(xc)+E(xc)   XCENC  =        72.64434239
  PAW double counting   =     11827.11694892   -12154.79196358
  entropy T*S    EENTRO =        -0.00350344
  eigenvalues    EBANDS =       636.61905582
  atomic energy  EATOM  =     11229.46195210
  Solvation  Ediel_sol  =         0.00000000
  ---------------------------------------------------
  free energy    TOTEN  =      -104.71710983 eV

  energy without entropy =     -104.71360639  energy(sigma->0) =     -104.71535811


--------------------------------------------------------------------------------------------------------




--------------------------------------- Iteration      1(   9)  ---------------------------------------


    POTLOK:  cpu time    0.0987: real time    0.0989
    SETDIJ:  cpu time    0.0356: real time    0.0357
    EDDIAG:  cpu time    3.3336: real time    3.3392
  RMM-DIIS:  cpu time   10.6540: real time   10.6712
    ORTHCH:  cpu time    0.6498: real time    0.6504
       DOS:  cpu time    0.0036: real time    0.0036
    CHARGE:  cpu time    0.6962: real time    0.6968
    MIXING:  cpu time    0.0018: real time    0.0018
    --------------------------------------------
      LOOP:  cpu time   15.4733: real time   15.4977

 eigenvalue-minimisations  : 13597
 total energy-change (2. order) : 0.9991726E+00  (-0.2269563E+00)
 number of electron     127.9999928 magnetization       9.1034716
 augmentation part       67.5342850 magnetization       7.2551013

 Broyden mixing:
  rms(total) = 0.11541E+01    rms(broyden)= 0.11540E+01
  rms(prec ) = 0.20270E+01
  weight for this iteration     100.00

 eigenvalues of (default mixing * dielectric matrix)
  average eigenvalue GAMMA=   0.5872
  1.1473  0.5785  0.4390  0.1841

 Free energy of the ion-electron system (eV)
  ---------------------------------------------------
  alpha Z        PSCENC =       531.33898629
  Ewald energy   TEWEN  =     -9284.53257308
  -Hartree energ DENC   =     -2953.97658901
  -exchange      EXHF   =         0.00000000
  -V(xc)+E(xc)   XCENC  =        73.11886424
  PAW double counting   =     12094.14145595   -12426.39946383
  entropy T*S    EENTRO =        -0.00294549
  eigenvalues    EBANDS =       633.13237560
  atomic energy  EATOM  =     11229.46195210
  Solvation  Ediel_sol  =         0.00000000
  ---------------------------------------------------
  free energy    TOTEN  =      -103.71793723 eV

  energy without entropy =     -103.71499173  energy(sigma->0) =     -103.71646448


--------------------------------------------------------------------------------------------------------




--------------------------------------- Iteration      1(  10)  ---------------------------------------


    POTLOK:  cpu time    0.1003: real time    0.1050
    SETDIJ:  cpu time    0.0355: real time    0.0355
    EDDIAG:  cpu time    3.3463: real time    3.3521
  RMM-DIIS:  cpu time   10.6326: real time   10.6526
    ORTHCH:  cpu time    0.6534: real time    0.6543
       DOS:  cpu time    0.0038: real time    0.0038
    CHARGE:  cpu time    0.7007: real time    0.7027
    MIXING:  cpu time    0.0020: real time    0.0020
    --------------------------------------------
      LOOP:  cpu time   15.4746: real time   15.5081

 eigenvalue-minimisations  : 13442
 total energy-change (2. order) : 0.3177022E+00  (-0.1592738E+00)
 number of electron     127.9999924 magnetization       8.9588233
 augmentation part       67.9725592 magnetization       6.8536623

 Broyden mixing:
  rms(total) = 0.78630E+00    rms(broyden)= 0.78628E+00
  rms(prec ) = 0.12332E+01
  weight for this iteration     100.00

 eigenvalues of (default mixing * dielectric matrix)
  average eigenvalue GAMMA=   0.6144
  1.4947  0.6340  0.5576  0.2044  0.1814

 Free energy of the ion-electron system (eV)
  ---------------------------------------------------
  alpha Z        PSCENC =       531.33898629
  Ewald energy   TEWEN  =     -9284.53257308
  -Hartree energ DENC   =     -2943.26940644
  -exchange      EXHF   =         0.00000000
  -V(xc)+E(xc)   XCENC  =        73.46907192
  PAW double counting   =     12338.15222287   -12673.23476434
  entropy T*S    EENTRO =        -0.00350974
  eigenvalues    EBANDS =       625.21778536
  atomic energy  EATOM  =     11229.46195210
  Solvation  Ediel_sol  =         0.00000000
  ---------------------------------------------------
  free energy    TOTEN  =      -103.40023506 eV

  energy without entropy =     -103.39672532  energy(sigma->0) =     -103.39848019


--------------------------------------------------------------------------------------------------------




--------------------------------------- Iteration      1(  11)  ---------------------------------------


    POTLOK:  cpu time    0.0984: real time    0.0986
    SETDIJ:  cpu time    0.0359: real time    0.0359
    EDDIAG:  cpu time    3.3540: real time    3.3585
  RMM-DIIS:  cpu time   10.7617: real time   10.7789
    ORTHCH:  cpu time    0.6579: real time    0.6587
       DOS:  cpu time    0.0039: real time    0.0039
    CHARGE:  cpu time    0.7012: real time    0.7018
    MIXING:  cpu time    0.0020: real time    0.0020
    --------------------------------------------
      LOOP:  cpu time   15.6150: real time   15.6384

 eigenvalue-minimisations  : 13614
 total energy-change (2. order) : 0.1884945E+00  (-0.3496334E-01)
 number of electron     127.9999933 magnetization       8.8322326
 augmentation part       67.7311849 magnetization       6.7570165

 Broyden mixing:
  rms(total) = 0.34409E+00    rms(broyden)= 0.34407E+00
  rms(prec ) = 0.45808E+00
  weight for this iteration     100.00

 eigenvalues of (default mixing * dielectric matrix)
  average eigenvalue GAMMA=   0.6462
  1.6469  0.6545  0.5783  0.5783  0.2386  0.1807

 Free energy of the ion-electron system (eV)
  ---------------------------------------------------
  alpha Z        PSCENC =       531.33898629
  Ewald energy   TEWEN  =     -9284.53257308
  -Hartree energ DENC   =     -2943.48589543
  -exchange      EXHF   =         0.00000000
  -V(xc)+E(xc)   XCENC  =        74.76563672
  PAW double counting   =     12631.35828643   -12972.42219111
  entropy T*S    EENTRO =        -0.00312301
  eigenvalues    EBANDS =       630.30718056
  atomic energy  EATOM  =     11229.46195210
  Solvation  Ediel_sol  =         0.00000000
  ---------------------------------------------------
  free energy    TOTEN  =      -103.21174052 eV

  energy without entropy =     -103.20861751  energy(sigma->0) =     -103.21017902


--------------------------------------------------------------------------------------------------------




--------------------------------------- Iteration      1(  12)  ---------------------------------------


    POTLOK:  cpu time    0.1004: real time    0.1005
    SETDIJ:  cpu time    0.0357: real time    0.0357
    EDDIAG:  cpu time    3.3576: real time    3.3612
  RMM-DIIS:  cpu time   10.9966: real time   11.0118
    ORTHCH:  cpu time    0.6522: real time    0.6530
       DOS:  cpu time    0.0037: real time    0.0037
    CHARGE:  cpu time    0.7074: real time    0.7082
    MIXING:  cpu time    0.0021: real time    0.0022
    --------------------------------------------
      LOOP:  cpu time   15.8558: real time   15.8763

 eigenvalue-minimisations  : 13739
 total energy-change (2. order) :-0.9127226E-02  (-0.1118576E-01)
 number of electron     127.9999933 magnetization       8.5445730
 augmentation part       67.7212311 magnetization       6.4400653

 Broyden mixing:
  rms(total) = 0.26301E+00    rms(broyden)= 0.26301E+00
  rms(prec ) = 0.35121E+00
  weight for this iteration     100.00

 eigenvalues of (default mixing * dielectric matrix)
  average eigenvalue GAMMA=   0.7441
  2.2000  0.8963  0.8038  0.6065  0.1807  0.2304  0.2910

 Free energy of the ion-electron system (eV)
  ---------------------------------------------------
  alpha Z        PSCENC =       531.33898629
  Ewald energy   TEWEN  =     -9284.53257308
  -Hartree energ DENC   =     -2942.29213686
  -exchange      EXHF   =         0.00000000
  -V(xc)+E(xc)   XCENC  =        75.11525031
  PAW double counting   =     12720.04474079   -13062.42434439
  entropy T*S    EENTRO =        -0.00283953
  eigenvalues    EBANDS =       630.07009663
  atomic energy  EATOM  =     11229.46195210
  Solvation  Ediel_sol  =         0.00000000
  ---------------------------------------------------
  free energy    TOTEN  =      -103.22086774 eV

  energy without entropy =     -103.21802821  energy(sigma->0) =     -103.21944798


--------------------------------------------------------------------------------------------------------




--------------------------------------- Iteration      1(  13)  ---------------------------------------


    POTLOK:  cpu time    0.0986: real time    0.0986
    SETDIJ:  cpu time    0.0357: real time    0.0357
    EDDIAG:  cpu time    3.3712: real time    3.3749
  RMM-DIIS:  cpu time   11.8958: real time   11.9129
    ORTHCH:  cpu time    0.6496: real time    0.6504
       DOS:  cpu time    0.0038: real time    0.0038
    CHARGE:  cpu time    0.7080: real time    0.7088
    MIXING:  cpu time    0.0023: real time    0.0023
    --------------------------------------------
      LOOP:  cpu time   16.7650: real time   16.7875

 eigenvalue-minimisations  : 14804
 total energy-change (2. order) :-0.9315441E-02  (-0.6894921E-02)
 number of electron     127.9999934 magnetization       8.4172224
 augmentation part       67.7911192 magnetization       6.3889839

 Broyden mixing:
  rms(total) = 0.10398E+00    rms(broyden)= 0.10397E+00
  rms(prec ) = 0.14535E+00
  weight for this iteration     100.00

 eigenvalues of (default mixing * dielectric matrix)
  average eigenvalue GAMMA=   0.7740
  2.2972  0.9459  0.9459  0.6574  0.6332  0.1807  0.2301  0.3012

 Free energy of the ion-electron system (eV)
  ---------------------------------------------------
  alpha Z        PSCENC =       531.33898629
  Ewald energy   TEWEN  =     -9284.53257308
  -Hartree energ DENC   =     -2939.02965927
  -exchange      EXHF   =         0.00000000
  -V(xc)+E(xc)   XCENC  =        75.60400116
  PAW double counting   =     12869.43672297   -13213.67612947
  entropy T*S    EENTRO =        -0.00249763
  eigenvalues    EBANDS =       628.16901373
  atomic energy  EATOM  =     11229.46195210
  Solvation  Ediel_sol  =         0.00000000
  ---------------------------------------------------
  free energy    TOTEN  =      -103.23018318 eV

  energy without entropy =     -103.22768556  energy(sigma->0) =     -103.22893437


--------------------------------------------------------------------------------------------------------




--------------------------------------- Iteration      1(  14)  ---------------------------------------


    POTLOK:  cpu time    0.1015: real time    0.1020
    SETDIJ:  cpu time    0.0358: real time    0.0358
    EDDIAG:  cpu time    3.3774: real time    3.3817
  RMM-DIIS:  cpu time   11.2367: real time   11.2469
    ORTHCH:  cpu time    0.6530: real time    0.6535
       DOS:  cpu time    0.0039: real time    0.0041
    CHARGE:  cpu time    0.7008: real time    0.7014
    MIXING:  cpu time    0.0025: real time    0.0025
    --------------------------------------------
      LOOP:  cpu time   16.1116: real time   16.1279

 eigenvalue-minimisations  : 14023
 total energy-change (2. order) :-0.1515378E-02  (-0.2477817E-02)
 number of electron     127.9999935 magnetization       8.3730588
 augmentation part       67.7490984 magnetization       6.3438798

 Broyden mixing:
  rms(total) = 0.82942E-01    rms(broyden)= 0.82940E-01
  rms(prec ) = 0.11510E+00
  weight for this iteration     100.00

 eigenvalues of (default mixing * dielectric matrix)
  average eigenvalue GAMMA=   0.7595
  2.2400  1.0926  1.0926  0.6360  0.6360  0.4176  0.1807  0.2299  0.3106

 Free energy of the ion-electron system (eV)
  ---------------------------------------------------
  alpha Z        PSCENC =       531.33898629
  Ewald energy   TEWEN  =     -9284.53257308
  -Hartree energ DENC   =     -2939.57733622
  -exchange      EXHF   =         0.00000000
  -V(xc)+E(xc)   XCENC  =        75.65047399
  PAW double counting   =     12896.36653229   -13240.94313583
  entropy T*S    EENTRO =        -0.00250031
  eigenvalues    EBANDS =       629.00590221
  atomic energy  EATOM  =     11229.46195210
  Solvation  Ediel_sol  =         0.00000000
  ---------------------------------------------------
  free energy    TOTEN  =      -103.23169856 eV

  energy without entropy =     -103.22919825  energy(sigma->0) =     -103.23044841


--------------------------------------------------------------------------------------------------------




--------------------------------------- Iteration      1(  15)  ---------------------------------------


    POTLOK:  cpu time    0.0994: real time    0.0996
    SETDIJ:  cpu time    0.0358: real time    0.0359
    EDDIAG:  cpu time    3.3850: real time    3.3881
  RMM-DIIS:  cpu time   11.0283: real time   11.0382
    ORTHCH:  cpu time    0.6512: real time    0.6518
       DOS:  cpu time    0.0180: real time    0.0182
    CHARGE:  cpu time    0.7037: real time    0.7042
    MIXING:  cpu time    0.0027: real time    0.0027
    --------------------------------------------
      LOOP:  cpu time   15.9243: real time   15.9387

 eigenvalue-minimisations  : 13700
 total energy-change (2. order) : 0.2037773E-02  (-0.8508464E-03)
 number of electron     127.9999934 magnetization       8.3270802
 augmentation part       67.7654297 magnetization       6.3047498

 Broyden mixing:
  rms(total) = 0.44256E-01    rms(broyden)= 0.44255E-01
  rms(prec ) = 0.58331E-01
  weight for this iteration     100.00

 eigenvalues of (default mixing * dielectric matrix)
  average eigenvalue GAMMA=   0.8021
  2.2154  1.6226  1.0426  0.7607  0.7607  0.5805  0.1807  0.2301  0.3095  0.3184

 Free energy of the ion-electron system (eV)
  ---------------------------------------------------
  alpha Z        PSCENC =       531.33898629
  Ewald energy   TEWEN  =     -9284.53257308
  -Hartree energ DENC   =     -2939.36288801
  -exchange      EXHF   =         0.00000000
  -V(xc)+E(xc)   XCENC  =        75.58301526
  PAW double counting   =     12896.37353532   -13240.74195539
  entropy T*S    EENTRO =        -0.00245934
  eigenvalues    EBANDS =       628.65272606
  atomic energy  EATOM  =     11229.46195210
  Solvation  Ediel_sol  =         0.00000000
  ---------------------------------------------------
  free energy    TOTEN  =      -103.22966079 eV

  energy without entropy =     -103.22720145  energy(sigma->0) =     -103.22843112


--------------------------------------------------------------------------------------------------------




--------------------------------------- Iteration      1(  16)  ---------------------------------------


    POTLOK:  cpu time    0.0994: real time    0.0996
    SETDIJ:  cpu time    0.0357: real time    0.0357
    EDDIAG:  cpu time    3.3898: real time    3.3929
  RMM-DIIS:  cpu time   12.2611: real time   12.2731
    ORTHCH:  cpu time    0.6491: real time    0.6498
       DOS:  cpu time    0.0037: real time    0.0039
    CHARGE:  cpu time    0.6975: real time    0.6983
    MIXING:  cpu time    0.0028: real time    0.0028
    --------------------------------------------
      LOOP:  cpu time   17.1390: real time   17.1561

 eigenvalue-minimisations  : 15199
 total energy-change (2. order) : 0.1972506E-03  (-0.1757525E-03)
 number of electron     127.9999934 magnetization       8.3040862
 augmentation part       67.7672894 magnetization       6.2782482

 Broyden mixing:
  rms(total) = 0.19702E-01    rms(broyden)= 0.19702E-01
  rms(prec ) = 0.24572E-01
  weight for this iteration     100.00

 eigenvalues of (default mixing * dielectric matrix)
  average eigenvalue GAMMA=   0.8802
  2.3078  2.3078  1.0106  1.0106  0.7188  0.7188  0.5638  0.1807  0.2301  0.2999
  0.3327

 Free energy of the ion-electron system (eV)
  ---------------------------------------------------
  alpha Z        PSCENC =       531.33898629
  Ewald energy   TEWEN  =     -9284.53257308
  -Hartree energ DENC   =     -2939.36067122
  -exchange      EXHF   =         0.00000000
  -V(xc)+E(xc)   XCENC  =        75.61042639
  PAW double counting   =     12902.78069616   -13247.08999087
  entropy T*S    EENTRO =        -0.00245258
  eigenvalues    EBANDS =       628.56416327
  atomic energy  EATOM  =     11229.46195210
  Solvation  Ediel_sol  =         0.00000000
  ---------------------------------------------------
  free energy    TOTEN  =      -103.22946354 eV

  energy without entropy =     -103.22701095  energy(sigma->0) =     -103.22823725


--------------------------------------------------------------------------------------------------------




--------------------------------------- Iteration      1(  17)  ---------------------------------------


    POTLOK:  cpu time    0.0989: real time    0.0991
    SETDIJ:  cpu time    0.0355: real time    0.0356
    EDDIAG:  cpu time    3.4087: real time    3.4133
  RMM-DIIS:  cpu time   11.7284: real time   11.7469
    ORTHCH:  cpu time    0.6836: real time    0.6844
       DOS:  cpu time    0.0037: real time    0.0039
    CHARGE:  cpu time    0.7091: real time    0.7099
    MIXING:  cpu time    0.0030: real time    0.0030
    --------------------------------------------
      LOOP:  cpu time   16.6710: real time   16.6960

 eigenvalue-minimisations  : 14638
 total energy-change (2. order) :-0.8162042E-04  (-0.6084338E-04)
 number of electron     127.9999935 magnetization       8.3046431
 augmentation part       67.7701190 magnetization       6.2837001

 Broyden mixing:
  rms(total) = 0.11974E-01    rms(broyden)= 0.11973E-01
  rms(prec ) = 0.18180E-01
  weight for this iteration     100.00

 eigenvalues of (default mixing * dielectric matrix)
  average eigenvalue GAMMA=   0.8503
  2.3394  2.3394  1.0303  1.0303  0.7158  0.7158  0.5411  0.1807  0.2301  0.4436
  0.2981  0.3387

 Free energy of the ion-electron system (eV)
  ---------------------------------------------------
  alpha Z        PSCENC =       531.33898629
  Ewald energy   TEWEN  =     -9284.53257308
  -Hartree energ DENC   =     -2939.34162366
  -exchange      EXHF   =         0.00000000
  -V(xc)+E(xc)   XCENC  =        75.64196801
  PAW double counting   =     12908.16353657   -13252.46025669
  entropy T*S    EENTRO =        -0.00244523
  eigenvalues    EBANDS =       628.50091054
  atomic energy  EATOM  =     11229.46195210
  Solvation  Ediel_sol  =         0.00000000
  ---------------------------------------------------
  free energy    TOTEN  =      -103.22954516 eV

  energy without entropy =     -103.22709992  energy(sigma->0) =     -103.22832254


--------------------------------------------------------------------------------------------------------




--------------------------------------- Iteration      1(  18)  ---------------------------------------


    POTLOK:  cpu time    0.0991: real time    0.1003
    SETDIJ:  cpu time    0.0358: real time    0.0358
    EDDIAG:  cpu time    3.4101: real time    3.4141
  RMM-DIIS:  cpu time   10.6671: real time   10.6806
    ORTHCH:  cpu time    0.6523: real time    0.6530
       DOS:  cpu time    0.0036: real time    0.0038
    CHARGE:  cpu time    0.7079: real time    0.7086
    MIXING:  cpu time    0.0032: real time    0.0032
    --------------------------------------------
      LOOP:  cpu time   15.5792: real time   15.5996

 eigenvalue-minimisations  : 13266
 total energy-change (2. order) : 0.5976088E-04  (-0.1989933E-04)
 number of electron     127.9999934 magnetization       8.3108233
 augmentation part       67.7727660 magnetization       6.2862929

 Broyden mixing:
  rms(total) = 0.61597E-02    rms(broyden)= 0.61596E-02
  rms(prec ) = 0.93370E-02
  weight for this iteration     100.00

 eigenvalues of (default mixing * dielectric matrix)
  average eigenvalue GAMMA=   0.8781
  2.4623  2.4623  1.1285  1.1285  0.8259  0.8259  0.6363  0.5683  0.1807  0.2301
  0.3001  0.3360  0.3298

 Free energy of the ion-electron system (eV)
  ---------------------------------------------------
[...]
     79      11.0773      0.00000
     80      11.6505      0.00000
     81      11.7569      0.00000
     82      11.7984      0.00000
     83      12.0676      0.00000
     84      12.1869      0.00000


--------------------------------------------------------------------------------------------------------


 soft charge-density along one line, spin component           1
         0         1         2         3         4         5         6         7         8         9
 total charge-density along one line

 soft charge-density along one line, spin component           2
         0         1         2         3         4         5         6         7         8         9
 total charge-density along one line

 pseudopotential strength for first ion, spin component:           1
 -1.710   0.000   0.016  -0.000   0.000  -2.343   0.000   0.015
  0.000  -1.700  -0.007  -0.002   0.009   0.000  -2.333  -0.006
  0.016  -0.007  -1.729   0.007   0.000   0.015  -0.006  -2.361
 -0.000  -0.002   0.007  -1.700   0.009  -0.000  -0.002   0.006
  0.000   0.009   0.000   0.009  -1.744   0.000   0.008   0.000
 -2.343   0.000   0.015  -0.000   0.000  -2.905   0.000   0.015
  0.000  -2.333  -0.006  -0.002   0.008   0.000  -2.896  -0.006
  0.015  -0.006  -2.361   0.006   0.000   0.015  -0.006  -2.922
 -0.000  -0.002   0.006  -2.333   0.008  -0.000  -0.002   0.006
  0.000   0.008   0.000   0.008  -2.375   0.000   0.008   0.000
  0.002   0.001  -0.002  -0.001   0.000   0.002   0.001  -0.002
  0.004   0.002  -0.003  -0.002   0.000   0.004   0.002  -0.003
 -0.003  -0.006   0.000   0.002   0.001  -0.003  -0.006   0.000
  0.002   0.003  -0.011  -0.003   0.000   0.001   0.003  -0.011
  0.003   0.002  -0.000  -0.006   0.001   0.003   0.001  -0.000
 -0.004  -0.005   0.000   0.002   0.000  -0.004  -0.005   0.000
  0.002   0.004  -0.011  -0.004   0.000   0.002   0.004  -0.011
  0.004   0.002  -0.000  -0.005   0.000   0.004   0.002  -0.000
 pseudopotential strength for first ion, spin component:           2
 -1.566   0.009  -0.020  -0.009   0.000  -2.206   0.009  -0.019
  0.009  -1.555  -0.002  -0.007   0.006   0.009  -2.195  -0.002
 -0.020  -0.002  -1.503   0.002   0.000  -0.019  -0.002  -2.145
 -0.009  -0.007   0.002  -1.555   0.006  -0.009  -0.007   0.002
  0.000   0.006   0.000   0.006  -1.504   0.000   0.005  -0.000
 -2.206   0.009  -0.019  -0.009   0.000  -2.775   0.009  -0.018
  0.009  -2.195  -0.002  -0.007   0.005   0.009  -2.765  -0.002
 -0.019  -0.002  -2.145   0.002  -0.000  -0.018  -0.002  -2.717
 -0.009  -0.007   0.002  -2.195   0.005  -0.009  -0.007   0.002
  0.000   0.005  -0.000   0.005  -2.146   0.000   0.005   0.000
 -0.005   0.002  -0.001  -0.002   0.000  -0.005   0.002  -0.001
 -0.009   0.003  -0.001  -0.003   0.000  -0.008   0.003  -0.001
  0.005  -0.010   0.001  -0.000   0.002   0.005  -0.010   0.001
 -0.000  -0.005  -0.012   0.005   0.000  -0.001  -0.005  -0.012
 -0.005  -0.000  -0.001  -0.010   0.002  -0.005  -0.001  -0.001
  0.007  -0.011   0.001  -0.001   0.002   0.006  -0.011   0.001
 -0.001  -0.007  -0.013   0.007   0.000  -0.001  -0.006  -0.012
 -0.007  -0.001  -0.001  -0.011   0.002  -0.006  -0.001  -0.001
 total augmentation occupancy for first ion, spin component:           1
  1.935  -0.016   0.001   0.016  -0.000  -0.475   0.008  -0.009  -0.008   0.000  -0.105   0.028   0.006   0.040  -0.006   0.001
 -0.016   2.053  -0.015   0.044   0.030   0.008  -0.556   0.007  -0.060  -0.017   0.005  -0.001   0.025   0.002   0.045  -0.012
  0.001  -0.015   2.713   0.015   0.000  -0.008   0.007  -1.026  -0.007  -0.000  -0.003   0.006   0.001  -0.070  -0.001  -0.000
  0.016   0.044   0.015   2.053   0.030  -0.008  -0.060  -0.007  -0.556  -0.017  -0.005   0.001   0.045  -0.002   0.025  -0.008
  0.000   0.030   0.000   0.030   2.805  -0.000  -0.017   0.000  -0.017  -1.085   0.000   0.000   0.006   0.000   0.006   0.000
 -0.475   0.008  -0.008  -0.008   0.000   0.796  -0.003   0.001   0.003   0.000   0.066  -0.018  -0.004  -0.023   0.004  -0.000
  0.008  -0.556   0.007  -0.060  -0.017  -0.003   0.849  -0.004   0.069   0.011  -0.002   0.001   0.005  -0.000  -0.025   0.001
 -0.009   0.007  -1.026  -0.007   0.000   0.001  -0.004   1.094   0.004   0.000   0.009  -0.006  -0.001   0.068   0.001   0.000
 -0.008  -0.060  -0.007  -0.556  -0.017   0.003   0.069   0.004   0.849   0.011   0.002  -0.001  -0.025   0.000   0.005   0.006
  0.000  -0.017   0.000  -0.017  -1.085   0.000   0.011  -0.000   0.011   1.120   0.000   0.000  -0.004   0.000  -0.004   0.000
 -0.105   0.005  -0.003  -0.005   0.000   0.066  -0.002   0.009   0.002  -0.000   2.121  -0.281   0.002   0.059  -0.002  -0.000
  0.028  -0.001   0.006   0.001  -0.000  -0.018   0.001  -0.006  -0.001   0.000  -0.281   0.047   0.000   0.001  -0.000  -0.000
  0.006   0.025   0.001   0.045   0.006  -0.004   0.005  -0.001  -0.025  -0.004   0.002   0.000   0.255  -0.000   0.002  -0.026
  0.040   0.002  -0.070  -0.002   0.000  -0.023  -0.000   0.068   0.000  -0.000   0.059   0.001  -0.000   0.260   0.000   0.000
 -0.006   0.045  -0.001   0.025   0.006   0.004  -0.025   0.001   0.005  -0.004  -0.002  -0.000   0.002   0.000   0.255  -0.002
  0.001  -0.012  -0.000  -0.008   0.000  -0.000   0.001   0.000   0.006   0.000  -0.000  -0.000  -0.026   0.000  -0.002   0.003
 -0.008  -0.001  -0.006   0.001  -0.000   0.006   0.000  -0.008  -0.000   0.000  -0.007  -0.000   0.000  -0.027  -0.000  -0.000
 -0.001  -0.008   0.000  -0.012   0.000   0.000   0.006  -0.000   0.001   0.000   0.000   0.000  -0.002  -0.000  -0.026   0.000
 total augmentation occupancy for first ion, spin component:           2
  0.279   0.012  -0.196  -0.012   0.000  -0.179   0.005   0.115  -0.005   0.000  -0.066   0.002   0.083  -0.038  -0.083  -0.003
  0.012   0.260  -0.029   0.077  -0.037   0.005  -0.161   0.032  -0.075   0.027  -0.016   0.000  -0.044  -0.075  -0.042   0.001
 -0.196  -0.029   0.416   0.029   0.000   0.115   0.031  -0.194  -0.031   0.000   0.006  -0.002  -0.019   0.024   0.019  -0.000
 -0.012   0.077   0.029   0.260  -0.037  -0.005  -0.075  -0.032  -0.161   0.027   0.016  -0.000  -0.042   0.075  -0.044   0.001
 -0.000  -0.037   0.000  -0.037   0.478  -0.000   0.028  -0.000   0.028  -0.230   0.000   0.000  -0.038   0.000  -0.038   0.000
 -0.179   0.005   0.115  -0.005   0.000   0.095  -0.015  -0.058   0.015  -0.000   0.044  -0.008  -0.052   0.029   0.052   0.006
  0.005  -0.161   0.031  -0.075   0.028  -0.015   0.079  -0.029   0.066  -0.019   0.015  -0.002   0.028   0.046   0.031  -0.002
  0.115   0.032  -0.194  -0.032  -0.000  -0.058  -0.029   0.051   0.029   0.000  -0.005   0.002   0.017  -0.023  -0.017  -0.000
 -0.005  -0.075  -0.031  -0.161   0.028   0.015   0.066   0.029   0.079  -0.019  -0.015   0.002   0.031  -0.046   0.028  -0.002
 -0.000   0.027  -0.000   0.027  -0.230  -0.000  -0.019   0.000  -0.019   0.070   0.000  -0.000   0.034   0.000   0.034  -0.001
 -0.066  -0.016   0.006   0.016   0.000   0.044   0.015  -0.005  -0.015   0.000  -0.050   0.007  -0.009  -0.005   0.009  -0.002
  0.002   0.000  -0.002  -0.000   0.000  -0.008  -0.002   0.002   0.002  -0.000   0.007  -0.002  -0.004  -0.002   0.004   0.001
  0.083  -0.044  -0.019  -0.042  -0.038  -0.052   0.028   0.017   0.031   0.034  -0.009  -0.004  -0.002   0.003   0.008   0.000
 -0.038  -0.075   0.024   0.075   0.000   0.029   0.046  -0.023  -0.046  -0.000  -0.005  -0.002   0.003  -0.005  -0.003  -0.000
 -0.083  -0.042   0.019  -0.044  -0.038   0.052   0.031  -0.017   0.028   0.034   0.009   0.004   0.008  -0.003  -0.002  -0.001
 -0.003   0.001  -0.000   0.001   0.000   0.006  -0.002  -0.000  -0.002  -0.001  -0.002   0.001   0.000  -0.000  -0.001   0.000
  0.002   0.003  -0.001  -0.003   0.000  -0.003  -0.005   0.002   0.005  -0.000  -0.001   0.000  -0.000   0.000   0.000   0.000
  0.003   0.001   0.000   0.001   0.000  -0.006  -0.002   0.000  -0.002  -0.001   0.002  -0.001  -0.001   0.000   0.000   0.000


------------------------ aborting loop because EDIFF is reached ----------------------------------------





 total charge     

# of ion       s       p       d       tot
------------------------------------------
    1        0.473   0.424   8.370   9.268
    2        0.472   0.423   8.388   9.284
    3        0.472   0.424   8.386   9.282
    4        0.473   0.423   8.371   9.268
    5        0.473   0.423   8.371   9.268
    6        0.472   0.424   8.386   9.282
    7        0.472   0.423   8.388   9.284
    8        0.473   0.424   8.370   9.268
    9        0.309   0.290   4.941   5.540
   10        0.310   0.286   4.956   5.553
   11        0.339   0.342   5.029   5.710
   12        0.347   0.341   4.924   5.612
   13        0.340   0.343   4.895   5.578
   14        0.347   0.329   4.962   5.638
   15        1.246   1.726   0.304   3.276
   16        1.245   1.738   0.302   3.284
--------------------------------------------------
tot          8.267   8.784  97.344 114.395



 magnetization (x)

# of ion       s       p       d       tot
------------------------------------------
    1       -0.010  -0.008   0.201   0.183
    2       -0.012  -0.004   0.212   0.196
    3       -0.010  -0.004   0.208   0.194
    4       -0.011  -0.008   0.201   0.182
    5       -0.011  -0.008   0.201   0.182
    6       -0.010  -0.004   0.208   0.194
    7       -0.012  -0.004   0.212   0.196
    8       -0.010  -0.008   0.201   0.183
    9       -0.029  -0.022  -3.624  -3.675
   10        0.030   0.008   3.595   3.633
   11        0.025   0.027   3.364   3.416
   12       -0.035  -0.035  -3.489  -3.559
   13        0.030   0.024   3.308   3.361
   14        0.026  -0.003   3.496   3.520
   15       -0.010   0.016  -0.002   0.004
   16       -0.010  -0.033  -0.003  -0.046
--------------------------------------------------
tot         -0.060  -0.065   8.290   8.164

    CHARGE:  cpu time    0.7130: real time    0.7135
    FORLOC:  cpu time    0.0072: real time    0.0072
    FORNL :  cpu time    5.0862: real time    5.0971
    STRESS:  cpu time   15.2307: real time   15.2488
    FORCOR:  cpu time    0.1019: real time    0.1020
    FORHAR:  cpu time    0.0161: real time    0.0161
    MIXING:  cpu time    0.0037: real time    0.0037
    OFIELD:  cpu time    0.0000: real time    0.0000

  FORCE on cell =-STRESS in cart. coord.  units (eV):
  Direction    XX          YY          ZZ          XY          YZ          ZX
  --------------------------------------------------------------------------------------
  Alpha Z   531.33899   531.33899   531.33899
  Ewald   -2974.24176 -2974.24176 -3336.07755     0.00000    -0.00000     0.00000
  Hartree  1091.09452  1091.09452   757.24778    -0.00000    -0.00000    -0.00000
  E(xc)    -670.68635  -670.68635  -671.16106     0.00000    -0.00000     0.00000
  Local    -471.01792  -471.01792   220.63816    -0.00000    -0.00000    -0.00000
  n-local  -151.32212  -147.34840  -147.65301     0.00917    -0.85804     0.14448
  augment  1578.43678  1578.43678  1580.88822     0.00000     0.00000    -0.00000
  Kinetic  1053.71883  1070.76641  1066.43439     1.56616     0.09685     0.95786
  Fock        0.00000     0.00000     0.00000     0.00000     0.00000     0.00000
  -------------------------------------------------------------------------------------
  Total      -2.16839    -2.16839     1.65592     0.00000     0.00000     0.00000
  in kB     -16.40482   -16.40482    12.52775     0.00000     0.00000     0.00000
  external pressure =       -6.76 kB  Pullay stress =        0.00 kB


 VOLUME and BASIS-vectors are now :
 -----------------------------------------------------------------------------
  energy-cutoff  :      550.00
  volume of cell :      211.78
      direct lattice vectors                 reciprocal lattice vectors
     5.960626254  0.000000000  0.000000000     0.167767607  0.000000000  0.000000000
     0.000000000  5.960626254  0.000000000     0.000000000  0.167767607  0.000000000
     0.000000000  0.000000000  5.960626254     0.000000000  0.000000000  0.167767607

  length of vectors
     5.960626254  5.960626254  5.960626254     0.167767607  0.167767607  0.167767607


 FORCES acting on ions
    electron-ion (+dipol)            ewald-force                    non-local-force                 convergence-correction
 -----------------------------------------------------------------------------------------------
   -.263E+01 0.263E+01 0.177E+03   0.250E+01 -.250E+01 -.174E+03   0.112E+00 -.112E+00 -.258E+01   0.774E-02 -.774E-02 0.880E-02
   0.263E+01 0.263E+01 0.177E+03   -.250E+01 -.250E+01 -.174E+03   -.112E+00 -.112E+00 -.258E+01   -.774E-02 -.774E-02 0.880E-02
   -.263E+01 -.263E+01 0.177E+03   0.250E+01 0.250E+01 -.174E+03   0.112E+00 0.112E+00 -.258E+01   0.774E-02 0.774E-02 0.880E-02
   0.263E+01 -.263E+01 0.177E+03   -.250E+01 0.250E+01 -.174E+03   -.112E+00 0.112E+00 -.258E+01   -.774E-02 0.774E-02 0.880E-02
   -.263E+01 0.263E+01 -.177E+03   0.250E+01 -.250E+01 0.174E+03   0.112E+00 -.112E+00 0.258E+01   0.774E-02 -.774E-02 -.880E-02
   0.263E+01 0.263E+01 -.177E+03   -.250E+01 -.250E+01 0.174E+03   -.112E+00 -.112E+00 0.258E+01   -.774E-02 -.774E-02 -.880E-02
   -.263E+01 -.263E+01 -.177E+03   0.250E+01 0.250E+01 0.174E+03   0.112E+00 0.112E+00 0.258E+01   0.774E-02 0.774E-02 -.880E-02
   0.263E+01 -.263E+01 -.177E+03   -.250E+01 0.250E+01 0.174E+03   -.112E+00 0.112E+00 0.258E+01   -.774E-02 0.774E-02 -.880E-02
   0.232E-12 0.162E-13 -.647E-12   -.239E-13 -.203E-13 0.111E-14   0.000E+00 0.000E+00 0.000E+00   -.751E-13 0.353E-13 0.551E-13
   -.537E-13 0.190E-12 -.643E-13   0.568E-13 0.235E-13 0.438E-13   0.000E+00 0.000E+00 0.000E+00   0.728E-13 -.336E-13 0.312E-13
   -.653E-13 -.335E-13 0.203E-12   0.551E-13 -.476E-13 -.549E-13   0.000E+00 0.000E+00 0.000E+00   0.844E-13 0.242E-13 -.223E-13
   0.225E-12 -.305E-13 0.160E-11   0.215E-12 0.967E-13 -.446E-13   0.000E+00 0.000E+00 0.000E+00   -.634E-13 0.275E-13 -.525E-13
   0.232E-12 0.170E-12 0.942E-12   -.717E-13 0.290E-13 -.689E-13   0.000E+00 0.000E+00 0.000E+00   -.749E-13 -.250E-13 -.408E-13
   -.746E-13 0.185E-12 0.208E-12   -.601E-13 -.115E-13 -.182E-14   0.000E+00 0.000E+00 0.000E+00   0.884E-13 -.128E-13 -.110E-13
   -.169E-13 -.104E-13 -.154E-13   -.792E-14 0.184E-13 -.120E-13   0.000E+00 0.000E+00 0.000E+00   0.285E-13 0.119E-13 0.137E-13
   0.669E-14 -.497E-12 -.180E-14   0.260E-16 -.897E-14 0.128E-13   0.000E+00 0.000E+00 0.000E+00   -.238E-13 -.116E-13 0.118E-13
 -----------------------------------------------------------------------------------------------
   0.833E-11 0.171E-10 -.340E-10   0.136E-13 -.522E-13 -.267E-12   0.416E-16 0.000E+00 0.000E+00   0.119E-12 0.203E-12 -.299E-12


 POSITION                                       TOTAL-FORCE (eV/Angst)
 -----------------------------------------------------------------------------------
      1.48752      1.49279      1.60003        -0.004303      0.004303     -0.001295
      4.47310      1.49279      1.60003         0.004303      0.004303     -0.001295
      1.48752      4.46784      1.60003        -0.004303     -0.004303     -0.001295
      4.47310      4.46784      1.60003         0.004303     -0.004303     -0.001295
      1.48752      1.49279      4.36060        -0.004303      0.004303      0.001295
      4.47310      1.49279      4.36060         0.004303      0.004303      0.001295
      1.48752      4.46784      4.36060        -0.004303     -0.004303      0.001295
      4.47310      4.46784      4.36060         0.004303     -0.004303      0.001295
      2.98031      0.00000      0.00000         0.000000      0.000000      0.000000
      0.00000      2.98031      0.00000         0.000000      0.000000      0.000000
      0.00000      0.00000      2.98031         0.000000      0.000000      0.000000
      2.98031      0.00000      2.98031         0.000000      0.000000      0.000000
      2.98031      2.98031      2.98031         0.000000      0.000000      0.000000
      0.00000      2.98031      2.98031         0.000000      0.000000      0.000000
      0.00000      0.00000      0.00000         0.000000      0.000000      0.000000
      2.98031      2.98031      0.00000         0.000000      0.000000      0.000000
 -----------------------------------------------------------------------------------
    total drift:                                0.000000      0.000000     -0.000000


--------------------------------------------------------------------------------------------------------



  FREE ENERGIE OF THE ION-ELECTRON SYSTEM (eV)
  ---------------------------------------------------
  free  energy   TOTEN  =      -103.22946727 eV

  energy  without entropy=     -103.22702285  energy(sigma->0) =     -103.22824506



--------------------------------------------------------------------------------------------------------


    POTLOK:  cpu time    0.1350: real time    0.1351


--------------------------------------------------------------------------------------------------------




--------------------------------------------------------------------------------------------------------


  
 reached required accuracy - stopping structural energy minimisation
     LOOP+:  cpu time  397.2316: real time  397.8990
    4ORBIT:  cpu time    0.0000: real time    0.0000



 total charge     

# of ion       s       p       d       tot
------------------------------------------
    1        0.473   0.424   8.370   9.268
    2        0.472   0.423   8.388   9.284
    3        0.472   0.424   8.386   9.282
    4        0.473   0.423   8.371   9.268
    5        0.473   0.423   8.371   9.268
    6        0.472   0.424   8.386   9.282
    7        0.472   0.423   8.388   9.284
    8        0.473   0.424   8.370   9.268
    9        0.309   0.290   4.941   5.540
   10        0.310   0.286   4.956   5.553
   11        0.339   0.342   5.029   5.710
   12        0.347   0.341   4.924   5.612
   13        0.340   0.343   4.895   5.578
   14        0.347   0.329   4.962   5.638
   15        1.246   1.726   0.304   3.276
   16        1.245   1.738   0.302   3.284
--------------------------------------------------
tot          8.267   8.784  97.344 114.395



 magnetization (x)

# of ion       s       p       d       tot
------------------------------------------
    1       -0.010  -0.008   0.201   0.183
    2       -0.012  -0.004   0.212   0.196
    3       -0.010  -0.004   0.208   0.194
    4       -0.011  -0.008   0.201   0.182
    5       -0.011  -0.008   0.201   0.182
    6       -0.010  -0.004   0.208   0.194
    7       -0.012  -0.004   0.212   0.196
    8       -0.010  -0.008   0.201   0.183
    9       -0.029  -0.022  -3.624  -3.675
   10        0.030   0.008   3.595   3.633
   11        0.025   0.027   3.364   3.416
   12       -0.035  -0.035  -3.489  -3.559
   13        0.030   0.024   3.308   3.361
   14        0.026  -0.003   3.496   3.520
   15       -0.010   0.016  -0.002   0.004
   16       -0.010  -0.033  -0.003  -0.046
--------------------------------------------------
tot         -0.060  -0.065   8.290   8.164


 total amount of memory used by VASP MPI-rank0   103512. kBytes
=======================================================================

   base      :      30000. kBytes
   nonlr-proj:       6790. kBytes
   fftplans  :       1269. kBytes
   grid      :       6573. kBytes
   one-center:        497. kBytes
   wavefun   :      58383. kBytes

  
  
 General timing and accounting informations for this job:
 ========================================================
  
                  Total CPU time used (sec):      407.970
                            User time (sec):      386.486
                          System time (sec):       21.484
                         Elapsed time (sec):      409.583
  
                   Maximum memory used (kb):      136852.
                   Average memory used (kb):           0.
  
                          Minor page faults:     10072495
                          Major page faults:            7
                 Voluntary context switches:         2335
