 vasp.5.4.4.18Apr17-6-g9f103f2a35 (build May 21 2018 20:56:50) complex           
 executed on             LinuxGNU date 2021.10.15  15:42:18
 running on   12 total cores
 distrk:  each k-point on   12 cores,    1 groups
 distr:  one band on NCORES_PER_BAND=   1 cores,   12 groups


--------------------------------------------------------------------------------------------------------


 INCAR:
 POTCAR:    PAW_PBE Ni 02Aug2007                  
 POTCAR:    PAW_PBE Mn 06Sep2000                  
 POTCAR:    PAW_PBE In 08Apr2002                  

 ----------------------------------------------------------------------------- 
|                                                                             |
|           W    W    AA    RRRRR   N    N  II  N    N   GGGG   !!!           |
|           W    W   A  A   R    R  NN   N  II  NN   N  G    G  !!!           |
|           W    W  A    A  R    R  N N  N  II  N N  N  G       !!!           |
|           W WW W  AAAAAA  RRRRR   N  N N  II  N  N N  G  GGG   !            |
|           WW  WW  A    A  R   R   N   NN  II  N   NN  G    G                |
|           W    W  A    A  R    R  N    N  II  N    N   GGGG   !!!           |
|                                                                             |
|      For optimal performance we recommend to set                            |
|        NCORE= 4 - approx SQRT( number of cores)                             |
|      NCORE specifies how many cores store one orbital (NPAR=cpu/NCORE).     |
|      This setting can  greatly improve the performance of VASP for DFT.     |
|      The default,   NCORE=1            might be grossly inefficient         |
|      on modern multi-core architectures or massively parallel machines.     |
|      Do your own testing !!!!                                               |
|      Unfortunately you need to use the default for GW and RPA calculations. |
|      (for HF NCORE is supported but not extensively tested yet)             |
|                                                                             |
 ----------------------------------------------------------------------------- 

 POTCAR:    PAW_PBE Ni 02Aug2007                  
   VRHFIN =Ni:                                                                  
   LEXCH  = PE                                                                  
   EATOM  =  1077.6739 eV,   79.2068 Ry                                         
                                                                                
   TITEL  = PAW_PBE Ni 02Aug2007                                                
   LULTRA =        F    use ultrasoft PP ?                                      
   IUNSCR =        1    unscreen: 0-lin 1-nonlin 2-no                           
   RPACOR =    2.000    partial core radius                                     
   POMASS =   58.690; ZVAL   =   10.000    mass and valenz                      
   RCORE  =    2.300    outmost cutoff radius                                   
   RWIGS  =    2.430; RWIGS  =    1.286    wigner-seitz radius (au A)           
   ENMAX  =  269.532; ENMIN  =  202.149 eV                                      
   RCLOC  =    1.201    cutoff for local pot                                    
   LCOR   =        T    correct aug charges                                     
   LPAW   =        T    paw PP                                                  
   EAUG   =  544.565                                                            
   DEXC   =    0.000                                                            
   RMAX   =    2.357    core radius for proj-oper                               
   RAUG   =    1.300    factor for augmentation sphere                          
   RDEP   =    2.390    radius for radial grids                                 
   RDEPT  =    1.838    core radius for aug-charge                              
                                                                                
   Atomic configuration                                                         
    9 entries                                                                   
     n  l   j            E        occ.                                          
     1  0  0.50     -8206.4253   2.0000                                         
     2  0  0.50      -976.1748   2.0000                                         
     2  1  1.50      -839.0571   6.0000                                         
     3  0  0.50      -105.9991   2.0000                                         
     3  1  1.50       -66.4603   6.0000                                         
     3  2  2.50        -4.6458   9.0000                                         
     4  0  0.50        -4.4926   1.0000                                         
     4  1  1.50        -4.0817   0.0000                                         
     4  3  2.50        -1.3606   0.0000                                         
   Description                                                                  
     l       E           TYP  RCUT    TYP  RCUT                                 
     2     -4.6457903     23  2.300                                             
     2     -6.0063729     23  2.300                                             
     0     -4.4925590     23  2.300                                             
     0      5.0102601     23  2.300                                             
     1     -2.7211652     23  2.300                                             
     1     16.5183231     23  2.300                                             
  local pseudopotential read in
  partial core-charges read in
  partial kinetic energy density read in
  atomic valenz-charges read in
  non local Contribution for L=           2  read in
    real space projection operators read in
  non local Contribution for L=           2  read in
    real space projection operators read in
  non local Contribution for L=           0  read in
    real space projection operators read in
  non local Contribution for L=           0  read in
    real space projection operators read in
  non local Contribution for L=           1  read in
    real space projection operators read in
  non local Contribution for L=           1  read in
    real space projection operators read in
    PAW grid and wavefunctions read in

   number of l-projection  operators is LMAX  =           6
   number of lm-projection operators is LMMAX =          18

 POTCAR:    PAW_PBE Mn 06Sep2000                  
   VRHFIN =Mn: d6 s1                                                            
   LEXCH  = PE                                                                  
   EATOM  =   416.7541 eV,   30.6306 Ry                                         
                                                                                
   TITEL  = PAW_PBE Mn 06Sep2000                                                
   LULTRA =        F    use ultrasoft PP ?                                      
   IUNSCR =        1    unscreen: 0-lin 1-nonlin 2-no                           
   RPACOR =    2.000    partial core radius                                     
   POMASS =   54.938; ZVAL   =    7.000    mass and valenz                      
   RCORE  =    2.300    outmost cutoff radius                                   
   RWIGS  =    2.500; RWIGS  =    1.323    wigner-seitz radius (au A)           
   ENMAX  =  269.864; ENMIN  =  202.398 eV                                      
   RCLOC  =    1.725    cutoff for local pot                                    
   LCOR   =        T    correct aug charges                                     
   LPAW   =        T    paw PP                                                  
   EAUG   =  500.711                                                            
   DEXC   =    0.000                                                            
   RMAX   =    2.343    core radius for proj-oper                               
   RAUG   =    1.300    factor for augmentation sphere                          
   RDEP   =    2.338    radius for radial grids                                 
   RDEPT  =    1.911    core radius for aug-charge                              
                                                                                
   Atomic configuration                                                         
    9 entries                                                                   
     n  l   j            E        occ.                                          
     1  0  0.50     -6424.8288   2.0000                                         
     2  0  0.50      -739.1154   2.0000                                         
     2  1  1.50      -625.3949   6.0000                                         
     3  0  0.50       -81.6100   2.0000                                         
     3  1  1.50       -50.4667   6.0000                                         
     3  2  2.50        -3.3745   6.0000                                         
     4  0  0.50        -4.1331   1.0000                                         
     4  1  0.50        -4.0817   0.0000                                         
     4  3  2.50        -1.3606   0.0000                                         
   Description                                                                  
     l       E           TYP  RCUT    TYP  RCUT                                 
     2     -3.3744664     23  2.300                                             
     2     -4.7350490     23  2.300                                             
     0     -4.1331408     23  2.300                                             
     0      7.6656614     23  2.300                                             
     1     -2.7211652     23  2.300                                             
     1     20.4087390     23  2.300                                             
  local pseudopotential read in
  partial core-charges read in
  partial kinetic energy density read in
  atomic valenz-charges read in
  non local Contribution for L=           2  read in
    real space projection operators read in
  non local Contribution for L=           2  read in
    real space projection operators read in
  non local Contribution for L=           0  read in
    real space projection operators read in
  non local Contribution for L=           0  read in
    real space projection operators read in
  non local Contribution for L=           1  read in
    real space projection operators read in
  non local Contribution for L=           1  read in
    real space projection operators read in
    PAW grid and wavefunctions read in

   number of l-projection  operators is LMAX  =           6
   number of lm-projection operators is LMMAX =          18

 POTCAR:    PAW_PBE In 08Apr2002                  
   VRHFIN =In: s2p1                                                             
   LEXCH  = PE                                                                  
   EATOM  =    53.7908 eV,    3.9535 Ry                                         
                                                                                
   TITEL  = PAW_PBE In 08Apr2002                                                
   LULTRA =        F    use ultrasoft PP ?                                      
   IUNSCR =        1    unscreen: 0-lin 1-nonlin 2-no                           
   RPACOR =    2.400    partial core radius                                     
   POMASS =  114.820; ZVAL   =    3.000    mass and valenz                      
   RCORE  =    3.100    outmost cutoff radius                                   
   RWIGS  =    3.170; RWIGS  =    1.677    wigner-seitz radius (au A)           
   ENMAX  =   95.934; ENMIN  =   71.951 eV                                      
   ICORE  =        3    local potential                                         
   LCOR   =        T    correct aug charges                                     
   LPAW   =        T    paw PP                                                  
   EAUG   =  237.125                                                            
   DEXC   =    0.000                                                            
   RMAX   =    3.168    core radius for proj-oper                               
   RAUG   =    1.300    factor for augmentation sphere                          
   RDEP   =    3.187    radius for radial grids                                 
   RDEPT  =    2.711    core radius for aug-charge                              
                                                                                
   Atomic configuration                                                         
   13 entries                                                                   
     n  l   j            E        occ.                                          
     1  0  0.50    -27747.9169   2.0000                                         
     2  0  0.50     -4154.4438   2.0000                                         
     2  1  1.50     -3728.4305   6.0000                                         
     3  0  0.50      -788.3680   2.0000                                         
     3  1  1.50      -648.9215   6.0000                                         
     3  2  2.50      -432.5893  10.0000                                         
     4  0  0.50      -119.6363   2.0000                                         
     4  1  1.50       -78.1086   6.0000                                         
     4  2  2.50       -18.6227  10.0000                                         
     5  0  0.50        -8.2107   2.0000                                         
     5  1  0.50        -2.5185   1.0000                                         
     5  2  2.50        -1.3606   0.0000                                         
     4  3  2.50        -2.7212   0.0000                                         
   Description                                                                  
     l       E           TYP  RCUT    TYP  RCUT                                 
     0     -8.2107306     23  3.100                                             
     0     -6.1485975     23  3.100                                             
     1     -2.5184867     23  3.100                                             
     1      3.2427302     23  3.100                                             
     2     -1.3605826     23  3.100                                             
     3     -1.3605826     23  3.100                                             
  local pseudopotential read in
  partial core-charges read in
  partial kinetic energy density read in
  atomic valenz-charges read in
  non local Contribution for L=           0  read in
    real space projection operators read in
  non local Contribution for L=           0  read in
    real space projection operators read in
  non local Contribution for L=           1  read in
    real space projection operators read in
  non local Contribution for L=           1  read in
    real space projection operators read in
  non local Contribution for L=           2  read in
    real space projection operators read in
    PAW grid and wavefunctions read in

   number of l-projection  operators is LMAX  =           5
   number of lm-projection operators is LMMAX =          13

 Optimization of the real space projectors (new method)

 maximal supplied QI-value         = 16.25
 optimisation between [QCUT,QGAM] = [ 11.86, 23.89] = [ 39.41,159.82] Ry 
 Optimized for a Real-space Cutoff    1.33 Angstroem

   l    n(q)    QCUT    max X(q) W(low)/X(q) W(high)/X(q)  e(spline) 
   2      9    11.864    60.317    0.21E-03    0.51E-03    0.25E-06
   2      9    11.864    55.921    0.21E-03    0.51E-03    0.26E-06
   0      9    11.864    51.690    0.22E-03    0.30E-04    0.17E-06
   0      9    11.864    30.015    0.20E-03    0.28E-04    0.15E-06
   1      9    11.864    18.849    0.76E-04    0.33E-03    0.17E-06
   1      9    11.864    14.624    0.60E-04    0.28E-03    0.15E-06
 Optimization of the real space projectors (new method)

 maximal supplied QI-value         = 16.25
 optimisation between [QCUT,QGAM] = [ 11.86, 23.89] = [ 39.41,159.82] Ry 
 Optimized for a Real-space Cutoff    1.36 Angstroem

   l    n(q)    QCUT    max X(q) W(low)/X(q) W(high)/X(q)  e(spline) 
   2      9    11.864   110.144    0.49E-03    0.50E-03    0.21E-06
   2      9    11.864   103.200    0.49E-03    0.51E-03    0.22E-06
   0     10    11.864    68.437    0.12E-03    0.41E-04    0.21E-06
   0     10    11.864    33.971    0.11E-03    0.36E-04    0.19E-06
   1      9    11.864    17.065    0.24E-03    0.26E-03    0.93E-07
   1      9    11.864    12.540    0.19E-03    0.20E-03    0.80E-07
 Optimization of the real space projectors (new method)

 maximal supplied QI-value         = 12.09
 optimisation between [QCUT,QGAM] = [ 11.97, 23.95] = [ 40.14,160.58] Ry 
 Optimized for a Real-space Cutoff    1.63 Angstroem

   l    n(q)    QCUT    max X(q) W(low)/X(q) W(high)/X(q)  e(spline) 
   0     12    11.973   106.980    0.33E-03    0.16E-03    0.25E-05
   0     12    11.973    81.086    0.37E-03    0.18E-03    0.28E-05
   1     11    11.973    53.097    0.22E-03    0.42E-03    0.40E-05
   1     11    11.973    32.621    0.20E-03    0.40E-03    0.37E-05
   2     11    11.973     8.820    0.30E-03    0.17E-03    0.41E-06
  PAW_PBE Ni 02Aug2007                  :
 energy of atom  1       EATOM=-1077.6739
 kinetic energy error for atom=    0.0027 (will be added to EATOM!!)
  PAW_PBE Mn 06Sep2000                  :
 energy of atom  2       EATOM= -416.7541
 kinetic energy error for atom=    0.0022 (will be added to EATOM!!)
  PAW_PBE In 08Apr2002                  :
 energy of atom  3       EATOM=  -53.7908
 kinetic energy error for atom=    0.0000 (will be added to EATOM!!)


 POSCAR: Ni2MnIn                                 
  positions in direct lattice
  velocities in cartesian coordinates
 exchange correlation table for  LEXCH =        8
   RHO(1)=    0.500       N(1)  =     2000
   RHO(2)=  100.500       N(2)  =     4000



--------------------------------------------------------------------------------------------------------


 ion  position               nearest neighbor table
   1  0.250  0.268  0.268-  14 2.46  13 2.46  10 2.59  11 2.59   9 2.59  12 2.59  15 2.71  16 2.71
                             3 2.77   5 2.77   2 2.98   2 2.98
   2  0.750  0.268  0.268-  14 2.46  13 2.46  10 2.59  11 2.59   9 2.59  12 2.59  15 2.71  16 2.71
                             4 2.77   6 2.77   1 2.98   1 2.98
   3  0.250  0.732  0.268-  14 2.46  13 2.46  10 2.59  11 2.59   9 2.59  12 2.59  15 2.71  16 2.71
                             1 2.77   7 2.77   4 2.98   4 2.98
   4  0.750  0.732  0.268-  14 2.46  13 2.46  10 2.59  11 2.59   9 2.59  12 2.59  15 2.71  16 2.71
                             2 2.77   8 2.77   3 2.98   3 2.98
   5  0.250  0.268  0.732-  14 2.46  13 2.46  10 2.59  11 2.59   9 2.59  12 2.59  15 2.71  16 2.71
                             1 2.77   7 2.77   6 2.98   6 2.98
   6  0.750  0.268  0.732-  14 2.46  13 2.46  10 2.59  11 2.59   9 2.59  12 2.59  15 2.71  16 2.71
                             2 2.77   8 2.77   5 2.98   5 2.98
   7  0.250  0.732  0.732-  14 2.46  13 2.46  10 2.59  11 2.59   9 2.59  12 2.59  15 2.71  16 2.71
                             3 2.77   5 2.77   8 2.98   8 2.98
   8  0.750  0.732  0.732-  14 2.46  13 2.46  10 2.59  11 2.59   9 2.59  12 2.59  15 2.71  16 2.71
                             4 2.77   6 2.77   7 2.98   7 2.98
   9  0.500  0.500  0.000-   1 2.59   2 2.59   3 2.59   4 2.59   5 2.59   6 2.59   7 2.59   8 2.59
                            10 2.98  13 2.98  16 2.98  13 2.98  16 2.98  10 2.98
  10  0.000  0.500  0.000-   1 2.59   2 2.59   3 2.59   4 2.59   5 2.59   6 2.59   7 2.59   8 2.59
                             9 2.98  14 2.98  15 2.98  14 2.98  15 2.98   9 2.98
  11  0.000  0.000  0.500-   1 2.59   2 2.59   3 2.59   4 2.59   5 2.59   6 2.59   7 2.59   8 2.59
                            12 2.98  14 2.98  15 2.98  15 2.98  14 2.98  12 2.98
  12  0.500  0.000  0.500-   1 2.59   2 2.59   3 2.59   4 2.59   5 2.59   6 2.59   7 2.59   8 2.59
                            11 2.98  13 2.98  16 2.98  16 2.98  13 2.98  11 2.98
  13  0.500  0.500  0.500-   1 2.46   2 2.46   3 2.46   4 2.46   5 2.46   6 2.46   7 2.46   8 2.46
                             9 2.98  12 2.98  14 2.98   9 2.98  12 2.98  14 2.98
  14  0.000  0.500  0.500-   1 2.46   2 2.46   3 2.46   4 2.46   5 2.46   6 2.46   7 2.46   8 2.46
                            10 2.98  11 2.98  13 2.98  10 2.98  11 2.98  13 2.98
  15  0.000  0.000  0.000-   1 2.71   2 2.71   3 2.71   4 2.71   5 2.71   6 2.71   7 2.71   8 2.71
                            10 2.98  11 2.98  16 2.98  11 2.98  10 2.98  16 2.98
  16  0.500  0.000  0.000-   1 2.71   2 2.71   3 2.71   4 2.71   5 2.71   6 2.71   7 2.71   8 2.71
                             9 2.98  12 2.98  15 2.98  12 2.98   9 2.98  15 2.98

  LATTYP: Found a simple cubic cell.
 ALAT       =     5.9667055476
  
  Lattice vectors:
  
 A1 = (   5.9667055476,   0.0000000000,   0.0000000000)
 A2 = (   0.0000000000,   5.9667055476,   0.0000000000)
 A3 = (   0.0000000000,   0.0000000000,   5.9667055476)


Analysis of symmetry for initial positions (statically):
=====================================================================
 Subroutine PRICEL returns following result:
 
  LATTYP: Found a simple tetragonal cell.
 ALAT       =     5.9667055476
 C/A-ratio  =     0.5000000000
  
  Lattice vectors:
  
 A1 = (   0.0000000000,   5.9667055476,   0.0000000000)
 A2 = (   0.0000000000,   0.0000000000,  -5.9667055476)
 A3 = (  -2.9833527738,   0.0000000000,   0.0000000000)
 
   2 primitive cells build up your supercell.
 

 Routine SETGRP: Setting up the symmetry group for a 
 simple cubic supercell.


 Subroutine GETGRP returns: Found 16 space group operations
 (whereof 16 operations were pure point group operations)
 out of a pool of 48 trial point group operations.


The static configuration has the point symmetry D_4h.


Analysis of symmetry for dynamics (positions and initial velocities):
=====================================================================
 Subroutine PRICEL returns following result:
 
  LATTYP: Found a simple tetragonal cell.
 ALAT       =     5.9667055476
 C/A-ratio  =     0.5000000000
  
  Lattice vectors:
  
 A1 = (   0.0000000000,   5.9667055476,   0.0000000000)
 A2 = (   0.0000000000,   0.0000000000,  -5.9667055476)
 A3 = (  -2.9833527738,   0.0000000000,   0.0000000000)
 
   2 primitive cells build up your supercell.
 

 Routine SETGRP: Setting up the symmetry group for a 
 simple cubic supercell.


 Subroutine GETGRP returns: Found 16 space group operations
 (whereof 16 operations were pure point group operations)
 out of a pool of 48 trial point group operations.


The dynamic configuration has the point symmetry D_4h.


Analysis of structural, dynamic, and magnetic symmetry:
=====================================================================
 Subroutine PRICEL returns:
 Original cell was already a primitive cell.
 

 Routine SETGRP: Setting up the symmetry group for a 
 simple cubic supercell.


 Subroutine GETGRP returns: Found 16 space group operations
 (whereof 16 operations were pure point group operations)
 out of a pool of 48 trial point group operations.


The magnetic configuration has the point symmetry D_4h.


 Subroutine INISYM returns: Found 16 space group operations
 (whereof 16 operations are pure point group operations),
 and found     1 'primitive' translations



 KPOINTS: k-points                                

Automatic generation of k-mesh.
Space group operators:
 irot       det(A)        alpha          n_x          n_y          n_z        tau_x        tau_y        tau_z
    1     1.000000     0.000000     1.000000     0.000000     0.000000     0.000000     0.000000     0.000000
    2    -1.000000     0.000000     1.000000     0.000000     0.000000     0.000000     0.000000     0.000000
    3     1.000000   180.000000     0.000000     0.707107     0.707107     0.000000     0.000000     0.000000
    4    -1.000000   180.000000     0.000000     0.707107     0.707107     0.000000     0.000000     0.000000
    5     1.000000   180.000000     0.000000     0.000000     1.000000     0.000000     0.000000     0.000000
    6    -1.000000   180.000000     0.000000     0.000000     1.000000     0.000000     0.000000     0.000000
    7     1.000000    90.000000    -1.000000     0.000000     0.000000     0.000000     0.000000     0.000000
    8    -1.000000    90.000000    -1.000000     0.000000     0.000000     0.000000     0.000000     0.000000
    9     1.000000   180.000000     1.000000     0.000000     0.000000     0.000000     0.000000     0.000000
   10    -1.000000   180.000000     1.000000     0.000000     0.000000     0.000000     0.000000     0.000000
   11     1.000000    90.000000     1.000000     0.000000     0.000000     0.000000     0.000000     0.000000
   12    -1.000000    90.000000     1.000000     0.000000     0.000000     0.000000     0.000000     0.000000
   13     1.000000   180.000000     0.000000     1.000000     0.000000     0.000000     0.000000     0.000000
   14    -1.000000   180.000000     0.000000     1.000000     0.000000     0.000000     0.000000     0.000000
   15     1.000000   180.000000     0.000000    -0.707107     0.707107     0.000000     0.000000     0.000000
   16    -1.000000   180.000000     0.000000    -0.707107     0.707107     0.000000     0.000000     0.000000
 
 Subroutine IBZKPT returns following result:
 ===========================================
 
 Found     40 irreducible k-points:
 
 Following reciprocal coordinates:
            Coordinates               Weight
  0.000000  0.000000  0.000000      1.000000
  0.142857  0.000000  0.000000      2.000000
  0.285714  0.000000  0.000000      2.000000
  0.428571  0.000000  0.000000      2.000000
  0.000000  0.142857  0.000000      4.000000
  0.142857  0.142857  0.000000      8.000000
  0.285714  0.142857  0.000000      8.000000
  0.428571  0.142857  0.000000      8.000000
  0.000000  0.285714  0.000000      4.000000
  0.142857  0.285714  0.000000      8.000000
  0.285714  0.285714  0.000000      8.000000
  0.428571  0.285714  0.000000      8.000000
  0.000000  0.428571  0.000000      4.000000
  0.142857  0.428571  0.000000      8.000000
  0.285714  0.428571  0.000000      8.000000
  0.428571  0.428571  0.000000      8.000000
  0.000000  0.142857  0.142857      4.000000
  0.142857  0.142857  0.142857      8.000000
  0.285714  0.142857  0.142857      8.000000
  0.428571  0.142857  0.142857      8.000000
  0.000000  0.285714  0.142857      8.000000
  0.142857  0.285714  0.142857     16.000000
  0.285714  0.285714  0.142857     16.000000
  0.428571  0.285714  0.142857     16.000000
  0.000000  0.428571  0.142857      8.000000
  0.142857  0.428571  0.142857     16.000000
  0.285714  0.428571  0.142857     16.000000
  0.428571  0.428571  0.142857     16.000000
  0.000000  0.285714  0.285714      4.000000
  0.142857  0.285714  0.285714      8.000000
  0.285714  0.285714  0.285714      8.000000
  0.428571  0.285714  0.285714      8.000000
  0.000000  0.428571  0.285714      8.000000
  0.142857  0.428571  0.285714     16.000000
  0.285714  0.428571  0.285714     16.000000
  0.428571  0.428571  0.285714     16.000000
  0.000000  0.428571  0.428571      4.000000
  0.142857  0.428571  0.428571      8.000000
  0.285714  0.428571  0.428571      8.000000
  0.428571  0.428571  0.428571      8.000000
 
 Following cartesian coordinates:
            Coordinates               Weight
  0.000000  0.000000  0.000000      1.000000
  0.137908  0.000000  0.000000      2.000000
  0.275816  0.000000  0.000000      2.000000
  0.413724  0.000000  0.000000      2.000000
  0.000000  0.137908  0.000000      4.000000
  0.137908  0.137908  0.000000      8.000000
  0.275816  0.137908  0.000000      8.000000
  0.413724  0.137908  0.000000      8.000000
  0.000000  0.275816  0.000000      4.000000
  0.137908  0.275816  0.000000      8.000000
  0.275816  0.275816  0.000000      8.000000
  0.413724  0.275816  0.000000      8.000000
  0.000000  0.413724  0.000000      4.000000
  0.137908  0.413724  0.000000      8.000000
  0.275816  0.413724  0.000000      8.000000
  0.413724  0.413724  0.000000      8.000000
  0.000000  0.137908  0.137908      4.000000
  0.137908  0.137908  0.137908      8.000000
  0.275816  0.137908  0.137908      8.000000
  0.413724  0.137908  0.137908      8.000000
  0.000000  0.275816  0.137908      8.000000
  0.137908  0.275816  0.137908     16.000000
  0.275816  0.275816  0.137908     16.000000
  0.413724  0.275816  0.137908     16.000000
  0.000000  0.413724  0.137908      8.000000
  0.137908  0.413724  0.137908     16.000000
  0.275816  0.413724  0.137908     16.000000
  0.413724  0.413724  0.137908     16.000000
  0.000000  0.275816  0.275816      4.000000
  0.137908  0.275816  0.275816      8.000000
  0.275816  0.275816  0.275816      8.000000
  0.413724  0.275816  0.275816      8.000000
  0.000000  0.413724  0.275816      8.000000
  0.137908  0.413724  0.275816     16.000000
  0.275816  0.413724  0.275816     16.000000
  0.413724  0.413724  0.275816     16.000000
  0.000000  0.413724  0.413724      4.000000
  0.137908  0.413724  0.413724      8.000000
  0.275816  0.413724  0.413724      8.000000
  0.413724  0.413724  0.413724      8.000000
 


--------------------------------------------------------------------------------------------------------




 Dimension of arrays:
   k-points           NKPTS =     40   k-points in BZ     NKDIM =     40   number of bands    NBANDS=     84
   number of dos      NEDOS =    301   number of ions     NIONS =     16
   non local maximal  LDIM  =      6   non local SUM 2l+1 LMDIM =     18
   total plane-waves  NPLWV =  46656
   max r-space proj   IRMAX =   4032   max aug-charges    IRDMAX=  24974
   dimension x,y,z NGX =    36 NGY =   36 NGZ =   36
   dimension x,y,z NGXF=    72 NGYF=   72 NGZF=   72
   support grid    NGXF=    72 NGYF=   72 NGZF=   72
   ions per type =               8   6   2
   NGX,Y,Z   is equivalent  to a cutoff of  10.03, 10.03, 10.03 a.u.
   NGXF,Y,Z  is equivalent  to a cutoff of  20.06, 20.06, 20.06 a.u.

 SYSTEM =  Testrun for NiMnIn                      
 POSCAR =  Ni2MnIn                                 

 Startparameter for this run:
   NWRITE =      2    write-flag & timer
   PREC   = normal    normal or accurate (medium, high low for compatibility)
   ISTART =      0    job   : 0-new  1-cont  2-samecut
   ICHARG =      2    charge: 1-file 2-atom 10-const
   ISPIN  =      2    spin polarized calculation?
   LNONCOLLINEAR =      F non collinear calculations
   LSORBIT =      F    spin-orbit coupling
   INIWAV =      1    electr: 0-lowe 1-rand  2-diag
   LASPH  =      F    aspherical Exc in radial PAW
   METAGGA=      F    non-selfconsistent MetaGGA calc.

 Electronic Relaxation 1
   ENCUT  =  550.0 eV  40.42 Ry    6.36 a.u.  11.41 11.41 11.41*2*pi/ulx,y,z
   ENINI  =  550.0     initial cutoff
   ENAUG  =  544.6 eV  augmentation charge cutoff
   NELM   =     60;   NELMIN=  2; NELMDL= -5     # of ELM steps 
   EDIFF  = 0.1E-04   stopping-criterion for ELM
   LREAL  =      T    real-space projection
   NLSPLINE    = F    spline interpolate recip. space projectors
   LCOMPAT=      F    compatible to vasp.4.4
   GGA_COMPAT  = T    GGA compatible to vasp.4.4-vasp.4.6
   LMAXPAW     = -100 max onsite density
   LMAXMIX     =    2 max onsite mixed and CHGCAR
   VOSKOWN=      0    Vosko Wilk Nusair interpolation
   ROPT   =   -0.00050  -0.00050  -0.00050
 Ionic relaxation
   EDIFFG = -.1E-01   stopping-criterion for IOM
   NSW    =   1000    number of steps for IOM
   NBLOCK =      1;   KBLOCK =   1000    inner block; outer block 
   IBRION =      2    ionic relax: 0-MD 1-quasi-New 2-CG
   NFREE  =      1    steps in history (QN), initial steepest desc. (CG)
   ISIF   =      2    stress and relaxation
   IWAVPR =     11    prediction:  0-non 1-charg 2-wave 3-comb
   ISYM   =      2    0-nonsym 1-usesym 2-fastsym
   LCORR  =      T    Harris-Foulkes like correction to forces

   POTIM  = 0.5000    time-step for ionic-motion
   TEIN   =    0.0    initial temperature
   TEBEG  =    0.0;   TEEND  =   0.0 temperature during run
   SMASS  =  -3.00    Nose mass-parameter (am)
   estimated Nose-frequenzy (Omega)   =  0.10E-29 period in steps =****** mass=  -0.814E-27a.u.
   SCALEE = 1.0000    scale energy and forces
   NPACO  =    256;   APACO  = 16.0  distance and # of slots for P.C.
   PSTRESS=    0.0 pullay stress

  Mass of Ions in am
   POMASS =  58.69 54.94114.82
  Ionic Valenz
   ZVAL   =  10.00  7.00  3.00
  Atomic Wigner-Seitz radii
   RWIGS  =  -1.00 -1.00 -1.00
  virtual crystal weights 
   VCA    =   1.00  1.00  1.00
   NELECT =     128.0000    total number of electrons
   NUPDOWN=      -1.0000    fix difference up-down

 DOS related values:
   EMIN   =  10.00;   EMAX   =-10.00  energy-range for DOS
   EFERMI =   0.00
   ISMEAR =     0;   SIGMA  =   0.02  broadening in eV -4-tet -1-fermi 0-gaus

 Electronic relaxation 2 (details)
   IALGO  =     68    algorithm
   LDIAG  =      T    sub-space diagonalisation (order eigenvalues)
   LSUBROT=      F    optimize rotation matrix (better conditioning)
   TURBO    =      0    0=normal 1=particle mesh
   IRESTART =      0    0=no restart 2=restart with 2 vectors
   NREBOOT  =      0    no. of reboots
   NMIN     =      0    reboot dimension
   EREF     =   0.00    reference energy to select bands
   IMIX   =      4    mixing-type and parameters
     AMIX     =   0.40;   BMIX     =  1.00
     AMIX_MAG =   1.60;   BMIX_MAG =  1.00
     AMIN     =   0.10
     WC   =   100.;   INIMIX=   1;  MIXPRE=   1;  MAXMIX= -45

 Intra band minimization:
   WEIMIN = 0.0010     energy-eigenvalue tresh-hold
   EBREAK =  0.30E-07  absolut break condition
   DEPER  =   0.30     relativ break condition  

   TIME   =   0.40     timestep for ELM

  volume/ion in A,a.u.               =      13.28        89.59
  Fermi-wavevector in a.u.,A,eV,Ry     =   1.382750  2.613018 26.014292  1.911997
  Thomas-Fermi vector in A             =   2.507412

 Write flags
   LWAVE        =      F    write WAVECAR
   LDOWNSAMPLE  =      F    k-point downsampling of WAVECAR
   LCHARG       =      T    write CHGCAR
   LVTOT        =      F    write LOCPOT, total local potential
   LVHAR        =      F    write LOCPOT, Hartree potential only
   LELF         =      F    write electronic localiz. function (ELF)
   LORBIT       =     11    0 simple, 1 ext, 2 COOP (PROOUT), +10 PAW based schemes


 Dipole corrections
   LMONO  =      F    monopole corrections only (constant potential shift)
   LDIPOL =      F    correct potential (dipole corrections)
   IDIPOL =      0    1-x, 2-y, 3-z, 4-all directions 
   EPSILON=  1.0000000 bulk dielectric constant

 Exchange correlation treatment:
   GGA     =    --    GGA type
   LEXCH   =     8    internal setting for exchange type
   VOSKOWN=      0    Vosko Wilk Nusair interpolation
   LHFCALC =     F    Hartree Fock is set to
   LHFONE  =     F    Hartree Fock one center treatment
   AEXX    =    0.0000 exact exchange contribution

 Linear response parameters
   LEPSILON=     F    determine dielectric tensor
   LRPA    =     F    only Hartree local field effects (RPA)
   LNABLA  =     F    use nabla operator in PAW spheres
   LVEL    =     F    velocity operator in full k-point grid
   LINTERFAST=   F  fast interpolation
   KINTER  =     0    interpolate to denser k-point grid
   CSHIFT  =0.1000    complex shift for real part using Kramers Kronig
   OMEGAMAX=  -1.0    maximum frequency
   DEG_THRESHOLD= 0.2000000E-02 threshold for treating states as degnerate
   RTIME   =   -0.100 relaxation time in fs
  (WPLASMAI=    0.000 imaginary part of plasma frequency in eV, 0.658/RTIME)
   DFIELD  = 0.0000000 0.0000000 0.0000000 field for delta impulse in time

 Orbital magnetization related:
   ORBITALMAG=     F  switch on orbital magnetization
   LCHIMAG   =     F  perturbation theory with respect to B field
   DQ        =  0.001000  dq finite difference perturbation B field
   LLRAUG    =     F  two centre corrections for induced B field



--------------------------------------------------------------------------------------------------------


 conjugate gradient relaxation of ions
 charge density and potential will be updated during run
 spin polarized calculation
 RMM-DIIS sequential band-by-band and
  variant of blocked Davidson during initial phase
 perform sub-space diagonalisation
    before iterative eigenvector-optimisation
 modified Broyden-mixing scheme, WC =      100.0
 initial mixing is a Kerker type mixing with AMIX =  0.4000 and BMIX =      1.0000
 Hartree-type preconditioning will be used
 using additional bands           20
 real space projection scheme for non local part
 use partial core corrections
 calculate Harris-corrections to forces   (improved forces if not selfconsistent)
 use gradient corrections 
 use of overlap-Matrix (Vanderbilt PP)
 Gauss-broadening in eV      SIGMA  =   0.02


--------------------------------------------------------------------------------------------------------


  energy-cutoff  :      550.00
  volume of cell :      212.42
      direct lattice vectors                 reciprocal lattice vectors
     5.966705548  0.000000000  0.000000000     0.167596673  0.000000000  0.000000000
     0.000000000  5.966705548  0.000000000     0.000000000  0.167596673  0.000000000
     0.000000000  0.000000000  5.966705548     0.000000000  0.000000000  0.167596673

  length of vectors
     5.966705548  5.966705548  5.966705548     0.167596673  0.167596673  0.167596673



 k-points in units of 2pi/SCALE and weight: k-points                                
   0.00000000  0.00000000  0.00000000       0.003
   0.13790812  0.00000000  0.00000000       0.006
   0.27581624  0.00000000  0.00000000       0.006
   0.41372436  0.00000000  0.00000000       0.006
   0.00000000  0.13790812  0.00000000       0.012
   0.13790812  0.13790812  0.00000000       0.023
   0.27581624  0.13790812  0.00000000       0.023
   0.41372436  0.13790812  0.00000000       0.023
   0.00000000  0.27581624  0.00000000       0.012
   0.13790812  0.27581624  0.00000000       0.023
   0.27581624  0.27581624  0.00000000       0.023
   0.41372436  0.27581624  0.00000000       0.023
   0.00000000  0.41372436  0.00000000       0.012
   0.13790812  0.41372436  0.00000000       0.023
   0.27581624  0.41372436  0.00000000       0.023
   0.41372436  0.41372436  0.00000000       0.023
   0.00000000  0.13790812  0.13790812       0.012
   0.13790812  0.13790812  0.13790812       0.023
   0.27581624  0.13790812  0.13790812       0.023
   0.41372436  0.13790812  0.13790812       0.023
   0.00000000  0.27581624  0.13790812       0.023
   0.13790812  0.27581624  0.13790812       0.047
   0.27581624  0.27581624  0.13790812       0.047
   0.41372436  0.27581624  0.13790812       0.047
   0.00000000  0.41372436  0.13790812       0.023
   0.13790812  0.41372436  0.13790812       0.047
   0.27581624  0.41372436  0.13790812       0.047
   0.41372436  0.41372436  0.13790812       0.047
   0.00000000  0.27581624  0.27581624       0.012
   0.13790812  0.27581624  0.27581624       0.023
   0.27581624  0.27581624  0.27581624       0.023
   0.41372436  0.27581624  0.27581624       0.023
   0.00000000  0.41372436  0.27581624       0.023
   0.13790812  0.41372436  0.27581624       0.047
   0.27581624  0.41372436  0.27581624       0.047
   0.41372436  0.41372436  0.27581624       0.047
   0.00000000  0.41372436  0.41372436       0.012
   0.13790812  0.41372436  0.41372436       0.023
   0.27581624  0.41372436  0.41372436       0.023
   0.41372436  0.41372436  0.41372436       0.023

 k-points in reciprocal lattice and weights: k-points                                
   0.00000000  0.00000000  0.00000000       0.003
   0.14285714  0.00000000  0.00000000       0.006
   0.28571429  0.00000000  0.00000000       0.006
   0.42857143  0.00000000  0.00000000       0.006
   0.00000000  0.14285714  0.00000000       0.012
   0.14285714  0.14285714  0.00000000       0.023
   0.28571429  0.14285714  0.00000000       0.023
   0.42857143  0.14285714  0.00000000       0.023
   0.00000000  0.28571429  0.00000000       0.012
   0.14285714  0.28571429  0.00000000       0.023
   0.28571429  0.28571429  0.00000000       0.023
   0.42857143  0.28571429  0.00000000       0.023
   0.00000000  0.42857143  0.00000000       0.012
   0.14285714  0.42857143  0.00000000       0.023
   0.28571429  0.42857143  0.00000000       0.023
   0.42857143  0.42857143  0.00000000       0.023
   0.00000000  0.14285714  0.14285714       0.012
   0.14285714  0.14285714  0.14285714       0.023
   0.28571429  0.14285714  0.14285714       0.023
   0.42857143  0.14285714  0.14285714       0.023
   0.00000000  0.28571429  0.14285714       0.023
   0.14285714  0.28571429  0.14285714       0.047
   0.28571429  0.28571429  0.14285714       0.047
   0.42857143  0.28571429  0.14285714       0.047
   0.00000000  0.42857143  0.14285714       0.023
   0.14285714  0.42857143  0.14285714       0.047
   0.28571429  0.42857143  0.14285714       0.047
   0.42857143  0.42857143  0.14285714       0.047
   0.00000000  0.28571429  0.28571429       0.012
   0.14285714  0.28571429  0.28571429       0.023
   0.28571429  0.28571429  0.28571429       0.023
   0.42857143  0.28571429  0.28571429       0.023
   0.00000000  0.42857143  0.28571429       0.023
   0.14285714  0.42857143  0.28571429       0.047
   0.28571429  0.42857143  0.28571429       0.047
   0.42857143  0.42857143  0.28571429       0.047
   0.00000000  0.42857143  0.42857143       0.012
   0.14285714  0.42857143  0.42857143       0.023
   0.28571429  0.42857143  0.42857143       0.023
   0.42857143  0.42857143  0.42857143       0.023

 position of ions in fractional coordinates (direct lattice) 
   0.24999998  0.26807508  0.26807508
   0.75000002  0.26807508  0.26807508
   0.24999998  0.73192492  0.26807508
   0.75000002  0.73192492  0.26807508
   0.24999998  0.26807508  0.73192492
   0.75000002  0.26807508  0.73192492
   0.24999998  0.73192492  0.73192492
   0.75000002  0.73192492  0.73192492
   0.50000000  0.50000000  0.00000000
   0.00000000  0.50000000  0.00000000
   0.00000000  0.00000000  0.50000000
   0.50000000  0.00000000  0.50000000
   0.50000000  0.50000000  0.50000000
   0.00000000  0.50000000  0.50000000
   0.00000000  0.00000000  0.00000000
   0.50000000  0.00000000  0.00000000

 position of ions in cartesian coordinates  (Angst):
   1.49167627  1.59952506  1.59952506
   4.47502928  1.59952506  1.59952506
   1.49167627  4.36718049  1.59952506
   4.47502928  4.36718049  1.59952506
   1.49167627  1.59952506  4.36718049
   4.47502928  1.59952506  4.36718049
   1.49167627  4.36718049  4.36718049
   4.47502928  4.36718049  4.36718049
   2.98335277  2.98335277  0.00000000
   0.00000000  2.98335277  0.00000000
   0.00000000  0.00000000  2.98335277
   2.98335277  0.00000000  2.98335277
   2.98335277  2.98335277  2.98335277
   0.00000000  2.98335277  2.98335277
   0.00000000  0.00000000  0.00000000
   2.98335277  0.00000000  0.00000000



--------------------------------------------------------------------------------------------------------


 k-point  1 :   0.0000 0.0000 0.0000  plane waves:    6235
 k-point  2 :   0.1429 0.0000 0.0000  plane waves:    6227
 k-point  3 :   0.2857 0.0000 0.0000  plane waves:    6227
 k-point  4 :   0.4286 0.0000 0.0000  plane waves:    6222
 k-point  5 :   0.0000 0.1429 0.0000  plane waves:    6227
 k-point  6 :   0.1429 0.1429 0.0000  plane waves:    6226
 k-point  7 :   0.2857 0.1429 0.0000  plane waves:    6226
 k-point  8 :   0.4286 0.1429 0.0000  plane waves:    6222
 k-point  9 :   0.0000 0.2857 0.0000  plane waves:    6227
 k-point 10 :   0.1429 0.2857 0.0000  plane waves:    6226
 k-point 11 :   0.2857 0.2857 0.0000  plane waves:    6234
 k-point 12 :   0.4286 0.2857 0.0000  plane waves:    6217
 k-point 13 :   0.0000 0.4286 0.0000  plane waves:    6222
 k-point 14 :   0.1429 0.4286 0.0000  plane waves:    6222
 k-point 15 :   0.2857 0.4286 0.0000  plane waves:    6217
 k-point 16 :   0.4286 0.4286 0.0000  plane waves:    6220
 k-point 17 :   0.0000 0.1429 0.1429  plane waves:    6226
 k-point 18 :   0.1429 0.1429 0.1429  plane waves:    6235
 k-point 19 :   0.2857 0.1429 0.1429  plane waves:    6228
 k-point 20 :   0.4286 0.1429 0.1429  plane waves:    6231
 k-point 21 :   0.0000 0.2857 0.1429  plane waves:    6226
 k-point 22 :   0.1429 0.2857 0.1429  plane waves:    6228
 k-point 23 :   0.2857 0.2857 0.1429  plane waves:    6214
 k-point 24 :   0.4286 0.2857 0.1429  plane waves:    6227
 k-point 25 :   0.0000 0.4286 0.1429  plane waves:    6222
 k-point 26 :   0.1429 0.4286 0.1429  plane waves:    6231
 k-point 27 :   0.2857 0.4286 0.1429  plane waves:    6227
 k-point 28 :   0.4286 0.4286 0.1429  plane waves:    6217
 k-point 29 :   0.0000 0.2857 0.2857  plane waves:    6234
 k-point 30 :   0.1429 0.2857 0.2857  plane waves:    6214
 k-point 31 :   0.2857 0.2857 0.2857  plane waves:    6217
 k-point 32 :   0.4286 0.2857 0.2857  plane waves:    6220
 k-point 33 :   0.0000 0.4286 0.2857  plane waves:    6217
 k-point 34 :   0.1429 0.4286 0.2857  plane waves:    6227
 k-point 35 :   0.2857 0.4286 0.2857  plane waves:    6220
 k-point 36 :   0.4286 0.4286 0.2857  plane waves:    6208
 k-point 37 :   0.0000 0.4286 0.4286  plane waves:    6220
 k-point 38 :   0.1429 0.4286 0.4286  plane waves:    6217
 k-point 39 :   0.2857 0.4286 0.4286  plane waves:    6208
 k-point 40 :   0.4286 0.4286 0.4286  plane waves:    6179

 maximum and minimum number of plane-waves per node :      6235     6179

 maximum number of plane-waves:      6235
 maximum index in each direction: 
   IXMAX=   11   IYMAX=   11   IZMAX=   11
   IXMIN=  -11   IYMIN=  -11   IZMIN=  -11


 serial   3D FFT for wavefunctions
 parallel 3D FFT for charge:
    minimum data exchange during FFTs selected (reduces bandwidth)


 total amount of memory used by VASP MPI-rank0   103628. kBytes
=======================================================================

   base      :      30000. kBytes
   nonlr-proj:       6799. kBytes
   fftplans  :       1269. kBytes
   grid      :       6573. kBytes
   one-center:        497. kBytes
   wavefun   :      58490. kBytes

     INWAV:  cpu time    0.0000: real time    0.0000
 Broyden mixing: mesh for mixing (old mesh)
   NGX = 23   NGY = 23   NGZ = 23
  (NGX  = 72   NGY  = 72   NGZ  = 72)
  gives a total of  12167 points

 initial charge density was supplied:
 charge density of overlapping atoms calculated
 number of electron     128.0000000 magnetization       0.8000000
 keeping initial charge density in first step


--------------------------------------------------------------------------------------------------------


 Maximum index for non-local projection operator         3887
 Maximum index for augmentation-charges         2111 (set IRDMAX)


--------------------------------------------------------------------------------------------------------


 First call to EWALD:  gamma=   0.297
 Maximum number of real-space cells 3x 3x 3
 Maximum number of reciprocal cells 3x 3x 3

    FEWALD:  cpu time    0.0021: real time    0.0021


--------------------------------------- Iteration      1(   1)  ---------------------------------------


    POTLOK:  cpu time    0.1036: real time    0.1050
    SETDIJ:  cpu time    0.0354: real time    0.0355
     EDDAV:  cpu time   23.3502: real time   23.3811
       DOS:  cpu time    0.0035: real time    0.0036
    --------------------------------------------
      LOOP:  cpu time   23.4928: real time   23.5252

 eigenvalue-minimisations  : 13440
 total energy-change (2. order) : 0.1070329E+04  (-0.5425786E+04)
 number of electron     128.0000000 magnetization       0.8000000
 augmentation part      128.0000000 magnetization       0.8000000

 Free energy of the ion-electron system (eV)
  ---------------------------------------------------
  alpha Z        PSCENC =       529.71654554
  Ewald energy   TEWEN  =     -9156.92055239
  -Hartree energ DENC   =     -3262.93339623
  -exchange      EXHF   =         0.00000000
  -V(xc)+E(xc)   XCENC  =        78.34954833
  PAW double counting   =     10320.96726947   -10647.99417394
  entropy T*S    EENTRO =        -0.00131045
  eigenvalues    EBANDS =      1979.68282289
  atomic energy  EATOM  =     11229.46195210
  Solvation  Ediel_sol  =         0.00000000
  ---------------------------------------------------
  free energy    TOTEN  =      1070.32870531 eV

  energy without entropy =     1070.33001577  energy(sigma->0) =     1070.32936054


--------------------------------------------------------------------------------------------------------




--------------------------------------- Iteration      1(   2)  ---------------------------------------


     EDDAV:  cpu time   23.4499: real time   23.4969
       DOS:  cpu time    0.0035: real time    0.0035
    --------------------------------------------
      LOOP:  cpu time   23.4534: real time   23.5004

 eigenvalue-minimisations  : 13440
 total energy-change (2. order) :-0.1068254E+04  (-0.1035064E+04)
 number of electron     128.0000000 magnetization       0.8000000
 augmentation part      128.0000000 magnetization       0.8000000

 Free energy of the ion-electron system (eV)
  ---------------------------------------------------
  alpha Z        PSCENC =       529.71654554
  Ewald energy   TEWEN  =     -9156.92055239
  -Hartree energ DENC   =     -3262.93339623
  -exchange      EXHF   =         0.00000000
  -V(xc)+E(xc)   XCENC  =        78.34954833
  PAW double counting   =     10320.96726947   -10647.99417394
  entropy T*S    EENTRO =        -0.00260760
  eigenvalues    EBANDS =       911.43045617
  atomic energy  EATOM  =     11229.46195210
  Solvation  Ediel_sol  =         0.00000000
  ---------------------------------------------------
  free energy    TOTEN  =         2.07504145 eV

  energy without entropy =        2.07764905  energy(sigma->0) =        2.07634525


--------------------------------------------------------------------------------------------------------




--------------------------------------- Iteration      1(   3)  ---------------------------------------


     EDDAV:  cpu time   25.2457: real time   25.2795
       DOS:  cpu time    0.0037: real time    0.0037
    --------------------------------------------
      LOOP:  cpu time   25.2494: real time   25.2833

 eigenvalue-minimisations  : 14856
 total energy-change (2. order) :-0.1113941E+03  (-0.1005620E+03)
 number of electron     128.0000000 magnetization       0.8000000
 augmentation part      128.0000000 magnetization       0.8000000

 Free energy of the ion-electron system (eV)
  ---------------------------------------------------
  alpha Z        PSCENC =       529.71654554
  Ewald energy   TEWEN  =     -9156.92055239
  -Hartree energ DENC   =     -3262.93339623
  -exchange      EXHF   =         0.00000000
  -V(xc)+E(xc)   XCENC  =        78.34954833
  PAW double counting   =     10320.96726947   -10647.99417394
  entropy T*S    EENTRO =        -0.00348461
  eigenvalues    EBANDS =       800.03720436
  atomic energy  EATOM  =     11229.46195210
  Solvation  Ediel_sol  =         0.00000000
  ---------------------------------------------------
  free energy    TOTEN  =      -109.31908736 eV

  energy without entropy =     -109.31560275  energy(sigma->0) =     -109.31734506


--------------------------------------------------------------------------------------------------------




--------------------------------------- Iteration      1(   4)  ---------------------------------------


     EDDAV:  cpu time   33.3542: real time   33.3985
       DOS:  cpu time    0.0038: real time    0.0038
    --------------------------------------------
      LOOP:  cpu time   33.3580: real time   33.4023

 eigenvalue-minimisations  : 20772
 total energy-change (2. order) :-0.7171560E+01  (-0.6754816E+01)
 number of electron     128.0000000 magnetization       0.8000000
 augmentation part      128.0000000 magnetization       0.8000000

 Free energy of the ion-electron system (eV)
  ---------------------------------------------------
  alpha Z        PSCENC =       529.71654554
  Ewald energy   TEWEN  =     -9156.92055239
  -Hartree energ DENC   =     -3262.93339623
  -exchange      EXHF   =         0.00000000
  -V(xc)+E(xc)   XCENC  =        78.34954833
  PAW double counting   =     10320.96726947   -10647.99417394
  entropy T*S    EENTRO =        -0.00345429
  eigenvalues    EBANDS =       792.86561436
  atomic energy  EATOM  =     11229.46195210
  Solvation  Ediel_sol  =         0.00000000
  ---------------------------------------------------
  free energy    TOTEN  =      -116.49064705 eV

  energy without entropy =     -116.48719276  energy(sigma->0) =     -116.48891991


--------------------------------------------------------------------------------------------------------




--------------------------------------- Iteration      1(   5)  ---------------------------------------


     EDDAV:  cpu time   31.7855: real time   31.8280
       DOS:  cpu time    0.0038: real time    0.0038
    CHARGE:  cpu time    0.6858: real time    0.6864
    MIXING:  cpu time    0.0015: real time    0.0015
    --------------------------------------------
      LOOP:  cpu time   32.4766: real time   32.5198

 eigenvalue-minimisations  : 19656
 total energy-change (2. order) :-0.2379651E+00  (-0.2367928E+00)
 number of electron     128.0000105 magnetization       0.3976519
 augmentation part       60.5522582 magnetization       0.3569411

 Broyden mixing:
  rms(total) = 0.34853E+01    rms(broyden)= 0.34853E+01
  rms(prec ) = 0.53435E+01
  weight for this iteration     100.00

 Free energy of the ion-electron system (eV)
  ---------------------------------------------------
  alpha Z        PSCENC =       529.71654554
  Ewald energy   TEWEN  =     -9156.92055239
  -Hartree energ DENC   =     -3262.93339623
  -exchange      EXHF   =         0.00000000
  -V(xc)+E(xc)   XCENC  =        78.34954833
  PAW double counting   =     10320.96726947   -10647.99417394
  entropy T*S    EENTRO =        -0.00357379
  eigenvalues    EBANDS =       792.62776875
  atomic energy  EATOM  =     11229.46195210
  Solvation  Ediel_sol  =         0.00000000
  ---------------------------------------------------
  free energy    TOTEN  =      -116.72861215 eV

  energy without entropy =     -116.72503836  energy(sigma->0) =     -116.72682526


--------------------------------------------------------------------------------------------------------




--------------------------------------- Iteration      1(   6)  ---------------------------------------


    POTLOK:  cpu time    0.0997: real time    0.1003
    SETDIJ:  cpu time    0.0367: real time    0.0368
    EDDIAG:  cpu time    3.3383: real time    3.3425
  RMM-DIIS:  cpu time   10.5750: real time   10.5884
    ORTHCH:  cpu time    0.6394: real time    0.6401
       DOS:  cpu time    0.0039: real time    0.0039
    CHARGE:  cpu time    0.6954: real time    0.6961
    MIXING:  cpu time    0.0017: real time    0.0017
    --------------------------------------------
      LOOP:  cpu time   15.3900: real time   15.4097

 eigenvalue-minimisations  : 13440
 total energy-change (2. order) : 0.7226362E+01  (-0.1579520E+02)
 number of electron     128.0000181 magnetization       0.7002026
 augmentation part       69.8208993 magnetization       0.3195977

 Broyden mixing:
  rms(total) = 0.44127E+01    rms(broyden)= 0.44127E+01
  rms(prec ) = 0.58628E+01
  weight for this iteration     100.00

 eigenvalues of (default mixing * dielectric matrix)
  average eigenvalue GAMMA=   0.2334
  0.2334

 Free energy of the ion-electron system (eV)
  ---------------------------------------------------
  alpha Z        PSCENC =       529.71654554
  Ewald energy   TEWEN  =     -9156.92055239
  -Hartree energ DENC   =     -3025.42255137
  -exchange      EXHF   =         0.00000000
  -V(xc)+E(xc)   XCENC  =        65.69365962
  PAW double counting   =     11110.40048640   -11403.19436357
  entropy T*S    EENTRO =        -0.00478156
  eigenvalues    EBANDS =       540.76735503
  atomic energy  EATOM  =     11229.46195210
  Solvation  Ediel_sol  =         0.00000000
  ---------------------------------------------------
  free energy    TOTEN  =      -109.50225021 eV

  energy without entropy =     -109.49746865  energy(sigma->0) =     -109.49985943


--------------------------------------------------------------------------------------------------------




--------------------------------------- Iteration      1(   7)  ---------------------------------------


    POTLOK:  cpu time    0.0990: real time    0.0991
    SETDIJ:  cpu time    0.0367: real time    0.0368
    EDDIAG:  cpu time    3.3503: real time    3.3545
  RMM-DIIS:  cpu time   10.5424: real time   10.5556
    ORTHCH:  cpu time    0.6392: real time    0.6400
       DOS:  cpu time    0.0039: real time    0.0039
    CHARGE:  cpu time    0.6970: real time    0.6976
    MIXING:  cpu time    0.0017: real time    0.0017
    --------------------------------------------
      LOOP:  cpu time   15.3701: real time   15.3891

 eigenvalue-minimisations  : 13490
 total energy-change (2. order) :-0.7958991E+00  (-0.2317784E+01)
 number of electron     128.0000120 magnetization       0.9134016
 augmentation part       69.8317353 magnetization       0.9657679

 Broyden mixing:
  rms(total) = 0.34765E+01    rms(broyden)= 0.34764E+01
  rms(prec ) = 0.61851E+01
  weight for this iteration     100.00

 eigenvalues of (default mixing * dielectric matrix)
  average eigenvalue GAMMA=   0.4325
  0.4325  0.4325

 Free energy of the ion-electron system (eV)
  ---------------------------------------------------
  alpha Z        PSCENC =       529.71654554
  Ewald energy   TEWEN  =     -9156.92055239
  -Hartree energ DENC   =     -3025.13720512
  -exchange      EXHF   =         0.00000000
  -V(xc)+E(xc)   XCENC  =        67.47961106
  PAW double counting   =     11414.67281916   -11715.56262503
  entropy T*S    EENTRO =        -0.00139154
  eigenvalues    EBANDS =       545.99269696
  atomic energy  EATOM  =     11229.46195210
  Solvation  Ediel_sol  =         0.00000000
  ---------------------------------------------------
  free energy    TOTEN  =      -110.29814927 eV

  energy without entropy =     -110.29675773  energy(sigma->0) =     -110.29745350


--------------------------------------------------------------------------------------------------------




--------------------------------------- Iteration      1(   8)  ---------------------------------------


    POTLOK:  cpu time    0.0989: real time    0.0990
    SETDIJ:  cpu time    0.0369: real time    0.0369
    EDDIAG:  cpu time    3.3644: real time    3.3687
  RMM-DIIS:  cpu time   10.5649: real time   10.5786
    ORTHCH:  cpu time    0.6390: real time    0.6397
       DOS:  cpu time    0.0039: real time    0.0039
    CHARGE:  cpu time    0.6917: real time    0.6924
    MIXING:  cpu time    0.0018: real time    0.0018
    --------------------------------------------
      LOOP:  cpu time   15.4014: real time   15.4209

 eigenvalue-minimisations  : 13441
 total energy-change (2. order) : 0.3099306E+01  (-0.2478534E+01)
 number of electron     128.0000177 magnetization       1.4890457
 augmentation part       68.4110856 magnetization       0.5340195

 Broyden mixing:
  rms(total) = 0.29349E+01    rms(broyden)= 0.29348E+01
  rms(prec ) = 0.54871E+01
  weight for this iteration     100.00

 eigenvalues of (default mixing * dielectric matrix)
  average eigenvalue GAMMA=   0.4199
  0.5494  0.5494  0.1609

 Free energy of the ion-electron system (eV)
  ---------------------------------------------------
  alpha Z        PSCENC =       529.71654554
  Ewald energy   TEWEN  =     -9156.92055239
  -Hartree energ DENC   =     -3071.23593062
  -exchange      EXHF   =         0.00000000
  -V(xc)+E(xc)   XCENC  =        71.00687109
  PAW double counting   =     11742.98288960   -12065.71114868
  entropy T*S    EENTRO =        -0.00425567
  eigenvalues    EBANDS =       613.50478601
  atomic energy  EATOM  =     11229.46195210
  Solvation  Ediel_sol  =         0.00000000
  ---------------------------------------------------
  free energy    TOTEN  =      -107.19884303 eV

  energy without entropy =     -107.19458736  energy(sigma->0) =     -107.19671519


--------------------------------------------------------------------------------------------------------




--------------------------------------- Iteration      1(   9)  ---------------------------------------


    POTLOK:  cpu time    0.0991: real time    0.0992
    SETDIJ:  cpu time    0.0367: real time    0.0367
    EDDIAG:  cpu time    3.4005: real time    3.4047
  RMM-DIIS:  cpu time   10.6177: real time   10.6313
    ORTHCH:  cpu time    0.6394: real time    0.6402
       DOS:  cpu time    0.0038: real time    0.0039
    CHARGE:  cpu time    0.6982: real time    0.6989
    MIXING:  cpu time    0.0018: real time    0.0018
    --------------------------------------------
      LOOP:  cpu time   15.4973: real time   15.5166

 eigenvalue-minimisations  : 13516
 total energy-change (2. order) : 0.3363408E+01  (-0.5489274E+00)
 number of electron     128.0000149 magnetization       1.6957593
 augmentation part       66.6988176 magnetization       1.6435496

 Broyden mixing:
  rms(total) = 0.15404E+01    rms(broyden)= 0.15402E+01
  rms(prec ) = 0.25342E+01
  weight for this iteration     100.00

 eigenvalues of (default mixing * dielectric matrix)
  average eigenvalue GAMMA=   0.5031
  0.9981  0.5443  0.3300  0.1401

 Free energy of the ion-electron system (eV)
  ---------------------------------------------------
  alpha Z        PSCENC =       529.71654554
  Ewald energy   TEWEN  =     -9156.92055239
  -Hartree energ DENC   =     -3087.81512350
  -exchange      EXHF   =         0.00000000
  -V(xc)+E(xc)   XCENC  =        72.18471488
  PAW double counting   =     11958.12584140   -12289.79546054
  entropy T*S    EENTRO =        -0.00370319
  eigenvalues    EBANDS =       641.21035059
  atomic energy  EATOM  =     11229.46195210
  Solvation  Ediel_sol  =         0.00000000
  ---------------------------------------------------
  free energy    TOTEN  =      -103.83543512 eV

  energy without entropy =     -103.83173193  energy(sigma->0) =     -103.83358352


--------------------------------------------------------------------------------------------------------




--------------------------------------- Iteration      1(  10)  ---------------------------------------


    POTLOK:  cpu time    0.1108: real time    0.1115
    SETDIJ:  cpu time    0.0379: real time    0.0379
    EDDIAG:  cpu time    3.3961: real time    3.4005
  RMM-DIIS:  cpu time   10.5606: real time   10.5745
    ORTHCH:  cpu time    0.6382: real time    0.6389
       DOS:  cpu time    0.0057: real time    0.0057
    CHARGE:  cpu time    0.6938: real time    0.6944
    MIXING:  cpu time    0.0020: real time    0.0020
    --------------------------------------------
      LOOP:  cpu time   15.4449: real time   15.4655

 eigenvalue-minimisations  : 13443
 total energy-change (2. order) : 0.7073266E+00  (-0.2591483E+00)
 number of electron     128.0000142 magnetization       1.3691656
 augmentation part       67.8489318 magnetization       1.1373969

 Broyden mixing:
  rms(total) = 0.10838E+01    rms(broyden)= 0.10837E+01
  rms(prec ) = 0.16897E+01
  weight for this iteration     100.00

 eigenvalues of (default mixing * dielectric matrix)
  average eigenvalue GAMMA=   0.4774
  1.0576  0.4949  0.4949  0.1989  0.1408

 Free energy of the ion-electron system (eV)
  ---------------------------------------------------
  alpha Z        PSCENC =       529.71654554
  Ewald energy   TEWEN  =     -9156.92055239
  -Hartree energ DENC   =     -3068.25366332
  -exchange      EXHF   =         0.00000000
  -V(xc)+E(xc)   XCENC  =        71.75717913
  PAW double counting   =     12222.69193023   -12555.95434088
  entropy T*S    EENTRO =        -0.00251904
  eigenvalues    EBANDS =       624.37536012
  atomic energy  EATOM  =     11229.46195210
  Solvation  Ediel_sol  =         0.00000000
  ---------------------------------------------------
  free energy    TOTEN  =      -103.12810850 eV

  energy without entropy =     -103.12558947  energy(sigma->0) =     -103.12684899


--------------------------------------------------------------------------------------------------------




--------------------------------------- Iteration      1(  11)  ---------------------------------------


    POTLOK:  cpu time    0.0992: real time    0.0993
    SETDIJ:  cpu time    0.0370: real time    0.0370
    EDDIAG:  cpu time    3.4084: real time    3.4132
  RMM-DIIS:  cpu time   10.7766: real time   10.7906
    ORTHCH:  cpu time    0.6357: real time    0.6365
       DOS:  cpu time    0.0038: real time    0.0038
    CHARGE:  cpu time    0.6999: real time    0.7005
    MIXING:  cpu time    0.0020: real time    0.0020
    --------------------------------------------
      LOOP:  cpu time   15.6627: real time   15.6830

 eigenvalue-minimisations  : 13692
 total energy-change (2. order) : 0.1194162E+00  (-0.5011630E-01)
 number of electron     128.0000144 magnetization       1.1614857
 augmentation part       67.7057687 magnetization       1.1169292

 Broyden mixing:
  rms(total) = 0.63078E+00    rms(broyden)= 0.63077E+00
  rms(prec ) = 0.79796E+00
  weight for this iteration     100.00

 eigenvalues of (default mixing * dielectric matrix)
  average eigenvalue GAMMA=   0.4729
  0.9423  0.5399  0.5399  0.4758  0.2027  0.1370

 Free energy of the ion-electron system (eV)
  ---------------------------------------------------
  alpha Z        PSCENC =       529.71654554
  Ewald energy   TEWEN  =     -9156.92055239
  -Hartree energ DENC   =     -3067.83171288
  -exchange      EXHF   =         0.00000000
  -V(xc)+E(xc)   XCENC  =        72.58031791
  PAW double counting   =     12380.60011103   -12717.47312086
  entropy T*S    EENTRO =        -0.00273245
  eigenvalues    EBANDS =       626.86049968
  atomic energy  EATOM  =     11229.46195210
  Solvation  Ediel_sol  =         0.00000000
  ---------------------------------------------------
  free energy    TOTEN  =      -103.00869232 eV

  energy without entropy =     -103.00595987  energy(sigma->0) =     -103.00732610


--------------------------------------------------------------------------------------------------------




--------------------------------------- Iteration      1(  12)  ---------------------------------------


    POTLOK:  cpu time    0.0988: real time    0.0989
    SETDIJ:  cpu time    0.0365: real time    0.0366
    EDDIAG:  cpu time    3.4051: real time    3.4094
  RMM-DIIS:  cpu time   10.5797: real time   10.5933
    ORTHCH:  cpu time    0.6373: real time    0.6380
       DOS:  cpu time    0.0035: real time    0.0035
    CHARGE:  cpu time    0.7046: real time    0.7053
    MIXING:  cpu time    0.0022: real time    0.0022
    --------------------------------------------
      LOOP:  cpu time   15.4677: real time   15.4872

 eigenvalue-minimisations  : 13447
 total energy-change (2. order) :-0.3719193E-01  (-0.2647795E-01)
 number of electron     128.0000147 magnetization       0.4665626
 augmentation part       67.4962652 magnetization       0.3598880

 Broyden mixing:
  rms(total) = 0.52184E+00    rms(broyden)= 0.52183E+00
  rms(prec ) = 0.58222E+00
  weight for this iteration     100.00

 eigenvalues of (default mixing * dielectric matrix)
  average eigenvalue GAMMA=   0.6134
  1.2164  1.2164  0.6375  0.6375  0.1371  0.2439  0.2052

 Free energy of the ion-electron system (eV)
  ---------------------------------------------------
  alpha Z        PSCENC =       529.71654554
  Ewald energy   TEWEN  =     -9156.92055239
  -Hartree energ DENC   =     -3070.09506904
  -exchange      EXHF   =         0.00000000
  -V(xc)+E(xc)   XCENC  =        73.28708180
  PAW double counting   =     12457.40990420   -12796.43977874
  entropy T*S    EENTRO =        -0.00149894
  eigenvalues    EBANDS =       630.53553123
  atomic energy  EATOM  =     11229.46195210
  Solvation  Ediel_sol  =         0.00000000
  ---------------------------------------------------
  free energy    TOTEN  =      -103.04588426 eV

  energy without entropy =     -103.04438532  energy(sigma->0) =     -103.04513479


--------------------------------------------------------------------------------------------------------




--------------------------------------- Iteration      1(  13)  ---------------------------------------


    POTLOK:  cpu time    0.0989: real time    0.0990
    SETDIJ:  cpu time    0.0362: real time    0.0362
    EDDIAG:  cpu time    3.4235: real time    3.4279
  RMM-DIIS:  cpu time   11.1284: real time   11.1430
    ORTHCH:  cpu time    0.6387: real time    0.6394
       DOS:  cpu time    0.0038: real time    0.0038
    CHARGE:  cpu time    0.7067: real time    0.7074
    MIXING:  cpu time    0.0023: real time    0.0023
    --------------------------------------------
      LOOP:  cpu time   16.0384: real time   16.0590

 eigenvalue-minimisations  : 14048
 total energy-change (2. order) :-0.1658471E+00  (-0.1738152E-01)
 number of electron     128.0000147 magnetization       0.2458211
 augmentation part       67.7412394 magnetization       0.1714918

 Broyden mixing:
  rms(total) = 0.24599E+00    rms(broyden)= 0.24598E+00
  rms(prec ) = 0.28554E+00
  weight for this iteration     100.00

 eigenvalues of (default mixing * dielectric matrix)
  average eigenvalue GAMMA=   0.6891
  1.9889  0.8931  0.8931  0.5754  0.5754  0.1372  0.2447  0.2050

 Free energy of the ion-electron system (eV)
  ---------------------------------------------------
  alpha Z        PSCENC =       529.71654554
  Ewald energy   TEWEN  =     -9156.92055239
  -Hartree energ DENC   =     -3063.41395401
  -exchange      EXHF   =         0.00000000
  -V(xc)+E(xc)   XCENC  =        74.76346009
  PAW double counting   =     12695.80977237   -13038.38749161
  entropy T*S    EENTRO =        -0.00178789
  eigenvalues    EBANDS =       625.76032448
  atomic energy  EATOM  =     11229.46195210
  Solvation  Ediel_sol  =         0.00000000
  ---------------------------------------------------
  free energy    TOTEN  =      -103.21173132 eV

  energy without entropy =     -103.20994343  energy(sigma->0) =     -103.21083737


--------------------------------------------------------------------------------------------------------




--------------------------------------- Iteration      1(  14)  ---------------------------------------


    POTLOK:  cpu time    0.1100: real time    0.1106
    SETDIJ:  cpu time    0.0375: real time    0.0376
    EDDIAG:  cpu time    3.4444: real time    3.4485
  RMM-DIIS:  cpu time   11.1988: real time   11.2131
    ORTHCH:  cpu time    0.6413: real time    0.6419
       DOS:  cpu time    0.0038: real time    0.0038
    CHARGE:  cpu time    0.7079: real time    0.7086
    MIXING:  cpu time    0.0024: real time    0.0024
    --------------------------------------------
      LOOP:  cpu time   16.1460: real time   16.1666

 eigenvalue-minimisations  : 14051
 total energy-change (2. order) :-0.2990469E-01  (-0.7178769E-02)
 number of electron     128.0000148 magnetization       0.1438010
 augmentation part       67.6780180 magnetization       0.1654244

 Broyden mixing:
  rms(total) = 0.15113E+00    rms(broyden)= 0.15113E+00
  rms(prec ) = 0.19517E+00
  weight for this iteration     100.00

 eigenvalues of (default mixing * dielectric matrix)
  average eigenvalue GAMMA=   0.7002
  2.0863  0.9908  0.9908  0.5747  0.5747  0.4965  0.1372  0.2441  0.2065

 Free energy of the ion-electron system (eV)
  ---------------------------------------------------
  alpha Z        PSCENC =       529.71654554
  Ewald energy   TEWEN  =     -9156.92055239
  -Hartree energ DENC   =     -3063.74379980
  -exchange      EXHF   =         0.00000000
  -V(xc)+E(xc)   XCENC  =        75.10345186
  PAW double counting   =     12779.21614629   -13123.27097499
  entropy T*S    EENTRO =        -0.00191077
  eigenvalues    EBANDS =       627.19750616
  atomic energy  EATOM  =     11229.46195210
  Solvation  Ediel_sol  =         0.00000000
  ---------------------------------------------------
  free energy    TOTEN  =      -103.24163600 eV

  energy without entropy =     -103.23972523  energy(sigma->0) =     -103.24068062


--------------------------------------------------------------------------------------------------------




--------------------------------------- Iteration      1(  15)  ---------------------------------------


    POTLOK:  cpu time    0.1012: real time    0.1012
    SETDIJ:  cpu time    0.0362: real time    0.0362
    EDDIAG:  cpu time    3.4537: real time    3.4583
  RMM-DIIS:  cpu time   10.9646: real time   10.9788
    ORTHCH:  cpu time    0.6382: real time    0.6388
       DOS:  cpu time    0.0037: real time    0.0037
    CHARGE:  cpu time    0.6983: real time    0.6990
    MIXING:  cpu time    0.0027: real time    0.0027
    --------------------------------------------
      LOOP:  cpu time   15.8986: real time   15.9188

 eigenvalue-minimisations  : 13843
 total energy-change (2. order) :-0.2847240E-02  (-0.3191286E-02)
 number of electron     128.0000147 magnetization       0.0499287
 augmentation part       67.7039950 magnetization       0.0001393

 Broyden mixing:
  rms(total) = 0.10161E+00    rms(broyden)= 0.10160E+00
  rms(prec ) = 0.13552E+00
  weight for this iteration     100.00

 eigenvalues of (default mixing * dielectric matrix)
  average eigenvalue GAMMA=   0.7442
  2.2751  1.1872  1.1872  0.6855  0.6855  0.5298  0.1372  0.2067  0.2441  0.3039

 Free energy of the ion-electron system (eV)
  ---------------------------------------------------
  alpha Z        PSCENC =       529.71654554
  Ewald energy   TEWEN  =     -9156.92055239
  -Hartree energ DENC   =     -3063.08605614
  -exchange      EXHF   =         0.00000000
  -V(xc)+E(xc)   XCENC  =        75.09895930
  PAW double counting   =     12805.28050201   -13149.47504162
  entropy T*S    EENTRO =        -0.00187837
  eigenvalues    EBANDS =       626.68108634
  atomic energy  EATOM  =     11229.46195210
  Solvation  Ediel_sol  =         0.00000000
  ---------------------------------------------------
  free energy    TOTEN  =      -103.24448324 eV

  energy without entropy =     -103.24260487  energy(sigma->0) =     -103.24354406


--------------------------------------------------------------------------------------------------------




--------------------------------------- Iteration      1(  16)  ---------------------------------------


    POTLOK:  cpu time    0.0991: real time    0.0993
    SETDIJ:  cpu time    0.0363: real time    0.0363
    EDDIAG:  cpu time    3.4485: real time    3.4528
  RMM-DIIS:  cpu time   11.6172: real time   11.6320
    ORTHCH:  cpu time    0.6393: real time    0.6400
       DOS:  cpu time    0.0038: real time    0.0038
    CHARGE:  cpu time    0.7155: real time    0.7161
    MIXING:  cpu time    0.0027: real time    0.0027
    --------------------------------------------
      LOOP:  cpu time   16.5624: real time   16.5831

 eigenvalue-minimisations  : 14476
 total energy-change (2. order) :-0.9807116E-03  (-0.1204144E-02)
 number of electron     128.0000148 magnetization       0.0145520
 augmentation part       67.7070425 magnetization       0.0015211

 Broyden mixing:
  rms(total) = 0.40814E-01    rms(broyden)= 0.40813E-01
  rms(prec ) = 0.49990E-01
  weight for this iteration     100.00

 eigenvalues of (default mixing * dielectric matrix)
  average eigenvalue GAMMA=   0.7864
  2.3218  1.5969  1.0638  0.8473  0.6939  0.6939  0.5326  0.1372  0.2065  0.2433
  0.3137

 Free energy of the ion-electron system (eV)
  ---------------------------------------------------
  alpha Z        PSCENC =       529.71654554
  Ewald energy   TEWEN  =     -9156.92055239
  -Hartree energ DENC   =     -3062.73720142
  -exchange      EXHF   =         0.00000000
  -V(xc)+E(xc)   XCENC  =        75.18140095
  PAW double counting   =     12834.92630418   -13179.29504631
  entropy T*S    EENTRO =        -0.00191998
  eigenvalues    EBANDS =       626.42305338
  atomic energy  EATOM  =     11229.46195210
  Solvation  Ediel_sol  =         0.00000000
  ---------------------------------------------------
  free energy    TOTEN  =      -103.24546395 eV

  energy without entropy =     -103.24354398  energy(sigma->0) =     -103.24450397


--------------------------------------------------------------------------------------------------------




--------------------------------------- Iteration      1(  17)  ---------------------------------------


    POTLOK:  cpu time    0.0990: real time    0.0991
    SETDIJ:  cpu time    0.0360: real time    0.0361
    EDDIAG:  cpu time    3.4882: real time    3.4929
  RMM-DIIS:  cpu time   12.7498: real time   12.7666
    ORTHCH:  cpu time    0.6393: real time    0.6400
       DOS:  cpu time    0.0037: real time    0.0037
    CHARGE:  cpu time    0.7173: real time    0.7180
    MIXING:  cpu time    0.0030: real time    0.0030
    --------------------------------------------
      LOOP:  cpu time   17.7363: real time   17.7594

 eigenvalue-minimisations  : 16035
 total energy-change (2. order) :-0.4137228E-03  (-0.2339589E-03)
 number of electron     128.0000148 magnetization       0.0050272
 augmentation part       67.7168837 magnetization       0.0007829

 Broyden mixing:
  rms(total) = 0.24452E-01    rms(broyden)= 0.24452E-01
  rms(prec ) = 0.35125E-01
  weight for this iteration     100.00

 eigenvalues of (default mixing * dielectric matrix)
  average eigenvalue GAMMA=   0.8268
  2.1446  2.1446  0.9855  0.9855  0.7690  0.7690  0.6784  0.5399  0.1372  0.2065
  0.2434  0.3176

 Free energy of the ion-electron system (eV)
  ---------------------------------------------------
  alpha Z        PSCENC =       529.71654554
  Ewald energy   TEWEN  =     -9156.92055239
  -Hartree energ DENC   =     -3062.57084486
  -exchange      EXHF   =         0.00000000
  -V(xc)+E(xc)   XCENC  =        75.22694951
  PAW double counting   =     12843.89554953   -13188.22202215
  entropy T*S    EENTRO =        -0.00192868
  eigenvalues    EBANDS =       626.16847372
  atomic energy  EATOM  =     11229.46195210
  Solvation  Ediel_sol  =         0.00000000
  ---------------------------------------------------
  free energy    TOTEN  =      -103.24587768 eV

  energy without entropy =     -103.24394900  energy(sigma->0) =     -103.24491334


--------------------------------------------------------------------------------------------------------




--------------------------------------- Iteration      1(  18)  ---------------------------------------


    POTLOK:  cpu time    0.1004: real time    0.1011
    SETDIJ:  cpu time    0.0360: real time    0.0360
    EDDIAG:  cpu time    3.4668: real time    3.4715
  RMM-DIIS:  cpu time   11.2928: real time   11.3075
    ORTHCH:  cpu time    0.6372: real time    0.6379
       DOS:  cpu time    0.0038: real time    0.0039
    CHARGE:  cpu time    0.7217: real time    0.7225
    MIXING:  cpu time    0.0032: real time    0.0032
    --------------------------------------------
      LOOP:  cpu time   16.2620: real time   16.2837

 eigenvalue-minimisations  : 14158
 total energy-change (2. order) : 0.8842988E-04  (-0.4775567E-04)
 number of electron     128.0000148 magnetization      -0.0007960
 augmentation part       67.7159936 magnetization      -0.0042419

 Broyden mixing:
  rms(total) = 0.11354E-01    rms(broyden)= 0.11353E-01
[...]
     79      10.5936      0.00000
     80      11.1164      0.00000
     81      11.4058      0.00000
     82      11.7359      0.00000
     83      11.9292      0.00000
     84      12.1430      0.00000


--------------------------------------------------------------------------------------------------------


 soft charge-density along one line, spin component           1
         0         1         2         3         4         5         6         7         8         9
 total charge-density along one line

 soft charge-density along one line, spin component           2
         0         1         2         3         4         5         6         7         8         9
 total charge-density along one line

 pseudopotential strength for first ion, spin component:           1
 -1.636   0.007   0.022  -0.014   0.002  -2.272   0.007   0.021
  0.007  -1.635  -0.005   0.007   0.009   0.007  -2.271  -0.005
  0.022  -0.005  -1.628  -0.013  -0.008   0.021  -0.005  -2.264
 -0.014   0.007  -0.013  -1.636  -0.018  -0.013   0.007  -0.012
  0.002   0.009  -0.008  -0.018  -1.619   0.002   0.009  -0.008
 -2.272   0.007   0.021  -0.013   0.002  -2.838   0.007   0.020
  0.007  -2.271  -0.005   0.007   0.009   0.007  -2.837  -0.005
  0.021  -0.005  -2.264  -0.012  -0.008   0.020  -0.005  -2.830
 -0.013   0.007  -0.012  -2.272  -0.017  -0.013   0.007  -0.011
  0.002   0.009  -0.008  -0.017  -2.255   0.002   0.009  -0.007
  0.003   0.001   0.000   0.003  -0.001   0.003   0.001   0.000
  0.006   0.001   0.001   0.006  -0.001   0.006   0.002   0.001
  0.006  -0.007   0.005  -0.002   0.010   0.005  -0.007   0.005
 -0.002  -0.007  -0.011   0.006   0.000  -0.002  -0.007  -0.011
 -0.007  -0.002  -0.001  -0.007   0.002  -0.007  -0.002  -0.001
  0.008  -0.008   0.006  -0.002   0.010   0.008  -0.007   0.005
 -0.002  -0.008  -0.011   0.008   0.000  -0.002  -0.007  -0.011
 -0.007  -0.002  -0.002  -0.007   0.003  -0.007  -0.002  -0.001
 pseudopotential strength for first ion, spin component:           2
 -1.636  -0.007  -0.021  -0.014  -0.002  -2.272  -0.007  -0.020
 -0.007  -1.635  -0.005  -0.007   0.009  -0.007  -2.271  -0.005
 -0.021  -0.005  -1.628   0.012  -0.008  -0.020  -0.005  -2.264
 -0.014  -0.007   0.012  -1.636   0.018  -0.013  -0.007   0.012
 -0.002   0.009  -0.008   0.018  -1.618  -0.002   0.009  -0.008
 -2.272  -0.007  -0.020  -0.013  -0.002  -2.838  -0.007  -0.020
 -0.007  -2.271  -0.005  -0.007   0.009  -0.007  -2.837  -0.005
 -0.020  -0.005  -2.264   0.012  -0.008  -0.020  -0.005  -2.830
 -0.013  -0.007   0.012  -2.272   0.017  -0.013  -0.007   0.011
 -0.002   0.009  -0.008   0.017  -2.255  -0.002   0.009  -0.007
 -0.003   0.001   0.000  -0.003  -0.001  -0.003   0.001   0.000
 -0.006   0.001   0.001  -0.006  -0.001  -0.006   0.002   0.001
 -0.006  -0.007   0.005   0.002   0.010  -0.005  -0.007   0.005
  0.002  -0.007  -0.011  -0.006   0.000   0.002  -0.007  -0.011
 -0.007   0.002   0.001  -0.007  -0.002  -0.007   0.002   0.001
 -0.008  -0.008   0.006   0.002   0.010  -0.008  -0.007   0.005
  0.002  -0.008  -0.011  -0.008   0.000   0.002  -0.007  -0.011
 -0.007   0.002   0.002  -0.007  -0.003  -0.007   0.002   0.001
 total augmentation occupancy for first ion, spin component:           1
  1.958  -0.000  -0.000   0.035   0.000  -0.502   0.000   0.000  -0.056  -0.000   0.000  -0.000   0.000   0.000   0.037  -0.000
 -0.000   2.154  -0.009  -0.000   0.015   0.000  -0.624   0.004   0.000  -0.007  -0.113   0.031   0.016   0.016   0.000  -0.010
 -0.000  -0.009   2.694   0.000  -0.122   0.000   0.004  -1.014   0.000   0.078   0.002   0.004   0.041  -0.084  -0.000   0.002
  0.035  -0.000   0.000   1.958   0.000  -0.056   0.000  -0.000  -0.502  -0.000   0.000  -0.000   0.000   0.000   0.037   0.000
  0.000   0.015  -0.122   0.000   2.835  -0.000  -0.007   0.078  -0.000  -1.104  -0.003  -0.007   0.073   0.001   0.000   0.004
 -0.502   0.000   0.000  -0.056  -0.000   0.821  -0.000   0.000   0.071   0.000  -0.000  -0.000  -0.000  -0.000  -0.003   0.000
  0.000  -0.624   0.004   0.000  -0.007  -0.000   0.895   0.004  -0.000  -0.006   0.071  -0.018   0.011   0.011  -0.000   0.000
  0.000   0.004  -1.014  -0.000   0.078   0.000   0.004   1.089  -0.000  -0.046   0.004  -0.003  -0.038   0.076   0.000   0.004
 -0.056   0.000   0.000  -0.502  -0.000   0.071  -0.000  -0.000   0.821  -0.000  -0.000  -0.000  -0.000  -0.000  -0.003   0.000
 -0.000  -0.007   0.078  -0.000  -1.104   0.000  -0.006  -0.046  -0.000   1.142  -0.006   0.006  -0.065   0.000  -0.000   0.007
  0.000  -0.113   0.002   0.000  -0.003  -0.000   0.071   0.004  -0.000  -0.006   2.127  -0.279   0.060   0.060  -0.000  -0.007
 -0.000   0.031   0.004  -0.000  -0.007  -0.000  -0.018  -0.003  -0.000   0.006  -0.279   0.047  -0.000  -0.000   0.000  -0.000
  0.000   0.016   0.041   0.000   0.073  -0.000   0.011  -0.038  -0.000  -0.065   0.060  -0.000   0.256   0.000  -0.000  -0.027
  0.000   0.016  -0.084   0.000   0.001  -0.000   0.011   0.076  -0.000   0.000   0.060  -0.000   0.000   0.256  -0.000  -0.002
  0.037   0.000  -0.000   0.037   0.000  -0.003  -0.000   0.000  -0.003  -0.000  -0.000   0.000  -0.000  -0.000   0.255   0.000
 -0.000  -0.010   0.002   0.000   0.004   0.000   0.000   0.004   0.000   0.007  -0.007  -0.000  -0.027  -0.002   0.000   0.003
  0.000  -0.010  -0.004  -0.000   0.000   0.000   0.000  -0.008   0.000  -0.000  -0.007  -0.000  -0.002  -0.027   0.000   0.000
 -0.011   0.000   0.000  -0.011  -0.000   0.001   0.000  -0.000   0.001   0.000   0.000  -0.000   0.000   0.000  -0.026  -0.000
 total augmentation occupancy for first ion, spin component:           2
 -0.000   0.099  -0.155  -0.000   0.061   0.000  -0.107   0.071   0.000  -0.058  -0.065   0.001  -0.112   0.047   0.000   0.005
  0.099   0.000   0.000   0.099  -0.000  -0.107   0.000  -0.000  -0.107   0.000  -0.000  -0.000   0.000   0.000   0.047  -0.000
 -0.155   0.000   0.001   0.025  -0.000   0.072  -0.000  -0.000   0.015   0.000   0.000   0.000   0.000  -0.000  -0.020   0.000
 -0.000   0.099   0.025  -0.000   0.165   0.000  -0.107   0.014   0.000  -0.091  -0.065   0.001   0.047  -0.112   0.000  -0.001
  0.061  -0.000  -0.000   0.165   0.001  -0.058   0.000   0.000  -0.091  -0.001  -0.000  -0.000   0.000   0.000   0.035   0.000
  0.000  -0.107   0.072   0.000  -0.058  -0.000   0.102  -0.018  -0.000   0.051   0.044  -0.007   0.070  -0.030  -0.000  -0.008
 -0.107   0.000  -0.000  -0.107   0.000   0.102  -0.000   0.000   0.102  -0.000   0.000  -0.000  -0.000  -0.000  -0.030   0.000
  0.071  -0.000  -0.000   0.014   0.000  -0.018   0.000   0.000  -0.035  -0.000  -0.000   0.000  -0.000   0.000   0.022   0.000
  0.000  -0.107   0.015   0.000  -0.091  -0.000   0.102  -0.035  -0.000   0.041   0.044  -0.007  -0.030   0.070  -0.000   0.002
 -0.058   0.000   0.000  -0.091  -0.001   0.051  -0.000  -0.000   0.041   0.000   0.000  -0.000  -0.000  -0.000  -0.038   0.000
 -0.065  -0.000   0.000  -0.065  -0.000   0.044   0.000  -0.000   0.044   0.000   0.000   0.000   0.000   0.000  -0.007  -0.000
  0.001  -0.000   0.000   0.001  -0.000  -0.007  -0.000   0.000  -0.007  -0.000   0.000  -0.000  -0.000  -0.000  -0.007   0.000
 -0.112   0.000   0.000   0.047   0.000   0.070  -0.000  -0.000  -0.030  -0.000   0.000  -0.000   0.000   0.000   0.007   0.000
  0.047   0.000  -0.000  -0.112   0.000  -0.030  -0.000   0.000   0.070  -0.000   0.000  -0.000   0.000   0.000   0.007   0.000
  0.000   0.047  -0.020   0.000   0.035  -0.000  -0.030   0.022  -0.000  -0.038  -0.007  -0.007   0.007   0.007   0.000  -0.001
  0.005  -0.000   0.000  -0.001   0.000  -0.008   0.000   0.000   0.002   0.000  -0.000   0.000   0.000   0.000  -0.001   0.000
 -0.001  -0.000  -0.000   0.005  -0.000   0.002   0.000  -0.000  -0.008   0.000  -0.000   0.000   0.000   0.000  -0.001  -0.000
 -0.000  -0.001   0.000  -0.000  -0.000   0.000   0.003  -0.000   0.000   0.000  -0.004   0.001  -0.001  -0.001  -0.000   0.000


------------------------ aborting loop because EDIFF is reached ----------------------------------------





 total charge     

# of ion       s       p       d       tot
------------------------------------------
    1        0.478   0.421   8.385   9.284
    2        0.478   0.421   8.385   9.284
    3        0.476   0.425   8.372   9.273
    4        0.476   0.425   8.372   9.273
    5        0.476   0.425   8.372   9.273
    6        0.476   0.425   8.372   9.273
    7        0.478   0.421   8.385   9.284
    8        0.478   0.421   8.385   9.284
    9        0.322   0.305   4.947   5.575
   10        0.322   0.305   4.947   5.575
   11        0.328   0.316   4.921   5.566
   12        0.328   0.316   4.921   5.566
   13        0.360   0.371   4.963   5.694
   14        0.360   0.371   4.963   5.695
   15        1.233   1.645   0.279   3.157
   16        1.233   1.645   0.279   3.157
--------------------------------------------------
tot          8.303   8.657  97.254 114.213



 magnetization (x)

# of ion       s       p       d       tot
------------------------------------------
    1       -0.002  -0.001  -0.005  -0.008
    2        0.002   0.001   0.005   0.009
    3       -0.001  -0.000   0.003   0.001
    4        0.001   0.000  -0.003  -0.001
    5        0.001   0.000  -0.003  -0.001
    6       -0.001  -0.000   0.003   0.001
    7        0.002   0.001   0.005   0.009
    8       -0.002  -0.001  -0.005  -0.008
    9        0.034   0.024   3.530   3.588
   10       -0.034  -0.024  -3.530  -3.588
   11       -0.037  -0.021  -3.572  -3.630
   12        0.037   0.021   3.572   3.630
   13        0.022   0.029   3.234   3.285
   14       -0.022  -0.029  -3.235  -3.287
   15        0.006   0.100  -0.007   0.100
   16       -0.006  -0.100   0.007  -0.100
--------------------------------------------------
tot          0.000   0.000   0.001   0.001

    CHARGE:  cpu time    0.7111: real time    0.7120
    FORLOC:  cpu time    0.0072: real time    0.0072
    FORNL :  cpu time    5.0845: real time    5.0904
    STRESS:  cpu time   15.2558: real time   15.2741
    FORCOR:  cpu time    0.1010: real time    0.1010
    FORHAR:  cpu time    0.0161: real time    0.0161
    MIXING:  cpu time    0.0036: real time    0.0036
    OFIELD:  cpu time    0.0000: real time    0.0000

  FORCE on cell =-STRESS in cart. coord.  units (eV):
  Direction    XX          YY          ZZ          XY          YZ          ZX
  --------------------------------------------------------------------------------------
  Alpha Z   529.71655   529.71655   529.71655
  Ewald   -2781.03333 -3187.95738 -3187.95738     0.00000    -0.00000     0.00000
  Hartree  1278.19006   892.27481   892.27481    -0.00000    -0.00000    -0.00000
  E(xc)    -669.61395  -670.35210  -670.35210     0.00000    -0.00000    -0.00000
  Local    -848.54801   -60.25234   -60.25234    -0.00000     0.00000     0.00000
  n-local  -149.57001  -149.00522  -147.22734     0.29063    -0.12861    -0.59335
  augment  1578.48485  1579.20387  1579.20387     0.00000    -0.00000     0.00000
  Kinetic  1059.58983  1055.00287  1074.15201     1.62031    -0.28573     1.64811
  Fock        0.00000     0.00000     0.00000     0.00000     0.00000     0.00000
  -------------------------------------------------------------------------------------
  Total      -2.78401    -0.90543    -0.90543     0.00000     0.00000     0.00000
  in kB     -20.99801    -6.82908    -6.82908     0.00000     0.00000     0.00000
  external pressure =      -11.55 kB  Pullay stress =        0.00 kB


 VOLUME and BASIS-vectors are now :
 -----------------------------------------------------------------------------
  energy-cutoff  :      550.00
  volume of cell :      212.42
      direct lattice vectors                 reciprocal lattice vectors
     5.966705548  0.000000000  0.000000000     0.167596673  0.000000000  0.000000000
     0.000000000  5.966705548  0.000000000     0.000000000  0.167596673  0.000000000
     0.000000000  0.000000000  5.966705548     0.000000000  0.000000000  0.167596673

  length of vectors
     5.966705548  5.966705548  5.966705548     0.167596673  0.167596673  0.167596673


 FORCES acting on ions
    electron-ion (+dipol)            ewald-force                    non-local-force                 convergence-correction
 -----------------------------------------------------------------------------------------------
   -.429E-02 0.169E+03 0.169E+03   0.105E-03 -.167E+03 -.167E+03   -.223E-03 -.227E+01 -.227E+01   0.431E-02 -.934E-02 -.934E-02
   0.429E-02 0.169E+03 0.169E+03   -.105E-03 -.167E+03 -.167E+03   0.223E-03 -.227E+01 -.227E+01   -.431E-02 -.934E-02 -.934E-02
   -.429E-02 -.169E+03 0.169E+03   0.105E-03 0.167E+03 -.167E+03   -.223E-03 0.227E+01 -.227E+01   0.431E-02 0.934E-02 -.934E-02
   0.429E-02 -.169E+03 0.169E+03   -.105E-03 0.167E+03 -.167E+03   0.223E-03 0.227E+01 -.227E+01   -.431E-02 0.934E-02 -.934E-02
   -.429E-02 0.169E+03 -.169E+03   0.105E-03 -.167E+03 0.167E+03   -.223E-03 -.227E+01 0.227E+01   0.431E-02 -.934E-02 0.934E-02
   0.429E-02 0.169E+03 -.169E+03   -.105E-03 -.167E+03 0.167E+03   0.223E-03 -.227E+01 0.227E+01   -.431E-02 -.934E-02 0.934E-02
   -.429E-02 -.169E+03 -.169E+03   0.105E-03 0.167E+03 0.167E+03   -.223E-03 0.227E+01 0.227E+01   0.431E-02 0.934E-02 0.934E-02
   0.429E-02 -.169E+03 -.169E+03   -.105E-03 0.167E+03 0.167E+03   0.223E-03 0.227E+01 0.227E+01   -.431E-02 0.934E-02 0.934E-02
   0.208E-12 0.155E-11 0.125E-11   0.119E-12 -.187E-13 -.604E-13   0.000E+00 0.000E+00 0.000E+00   -.438E-13 -.661E-13 0.536E-13
   -.256E-13 0.255E-12 -.666E-13   0.125E-12 0.168E-13 -.358E-14   0.000E+00 0.000E+00 0.000E+00   0.346E-13 -.641E-13 0.511E-13
   -.295E-13 -.801E-13 0.232E-12   0.867E-13 0.859E-13 0.584E-13   0.000E+00 0.000E+00 0.000E+00   0.421E-13 0.821E-13 -.575E-13
   0.203E-12 -.804E-13 0.270E-11   0.113E-12 0.574E-13 0.158E-13   0.000E+00 0.000E+00 0.000E+00   -.461E-13 0.874E-13 -.863E-13
   0.191E-12 0.410E-12 0.124E-11   0.179E-13 0.407E-13 -.114E-13   0.000E+00 0.000E+00 0.000E+00   -.173E-13 -.864E-13 -.690E-13
   -.389E-13 0.246E-12 0.216E-12   -.473E-13 -.102E-12 -.114E-13   0.000E+00 0.000E+00 0.000E+00   0.147E-14 -.752E-13 -.493E-13
   0.165E-13 -.375E-13 -.151E-13   -.223E-13 -.667E-15 -.921E-15   0.000E+00 0.000E+00 0.000E+00   0.248E-13 0.213E-13 0.204E-13
   -.347E-13 0.867E-14 0.547E-12   -.156E-13 0.171E-13 0.264E-14   0.000E+00 0.000E+00 0.000E+00   -.251E-13 0.215E-13 0.236E-13
 -----------------------------------------------------------------------------------------------
   0.985E-11 0.486E-11 0.822E-11   -.708E-15 0.117E-13 -.109E-13   -.139E-16 0.444E-15 -.888E-15   0.690E-13 0.753E-13 -.542E-12


 POSITION                                       TOTAL-FORCE (eV/Angst)
 -----------------------------------------------------------------------------------
      1.49168      1.59953      1.59953        -0.000100      0.004139      0.004139
      4.47503      1.59953      1.59953         0.000100      0.004139      0.004139
      1.49168      4.36718      1.59953        -0.000100     -0.004139      0.004139
      4.47503      4.36718      1.59953         0.000100     -0.004139      0.004139
      1.49168      1.59953      4.36718        -0.000100      0.004139     -0.004139
      4.47503      1.59953      4.36718         0.000100      0.004139     -0.004139
      1.49168      4.36718      4.36718        -0.000100     -0.004139     -0.004139
      4.47503      4.36718      4.36718         0.000100     -0.004139     -0.004139
      2.98335      2.98335      0.00000         0.000000      0.000000      0.000000
      0.00000      2.98335      0.00000         0.000000      0.000000      0.000000
      0.00000      0.00000      2.98335         0.000000      0.000000      0.000000
      2.98335      0.00000      2.98335         0.000000      0.000000      0.000000
      2.98335      2.98335      2.98335         0.000000      0.000000      0.000000
      0.00000      2.98335      2.98335         0.000000      0.000000      0.000000
      0.00000      0.00000      0.00000         0.000000      0.000000      0.000000
      2.98335      0.00000      0.00000         0.000000      0.000000      0.000000
 -----------------------------------------------------------------------------------
    total drift:                                0.000000      0.000000      0.000000


--------------------------------------------------------------------------------------------------------



  FREE ENERGIE OF THE ION-ELECTRON SYSTEM (eV)
  ---------------------------------------------------
  free  energy   TOTEN  =      -103.24574385 eV

  energy  without entropy=     -103.24380330  energy(sigma->0) =     -103.24477357



--------------------------------------------------------------------------------------------------------


    POTLOK:  cpu time    0.1354: real time    0.1355


--------------------------------------------------------------------------------------------------------




--------------------------------------------------------------------------------------------------------


  
 reached required accuracy - stopping structural energy minimisation
     LOOP+:  cpu time  395.6106: real time  396.2219
    4ORBIT:  cpu time    0.0000: real time    0.0000



 total charge     

# of ion       s       p       d       tot
------------------------------------------
    1        0.478   0.421   8.385   9.284
    2        0.478   0.421   8.385   9.284
    3        0.476   0.425   8.372   9.273
    4        0.476   0.425   8.372   9.273
    5        0.476   0.425   8.372   9.273
    6        0.476   0.425   8.372   9.273
    7        0.478   0.421   8.385   9.284
    8        0.478   0.421   8.385   9.284
    9        0.322   0.305   4.947   5.575
   10        0.322   0.305   4.947   5.575
   11        0.328   0.316   4.921   5.566
   12        0.328   0.316   4.921   5.566
   13        0.360   0.371   4.963   5.694
   14        0.360   0.371   4.963   5.695
   15        1.233   1.645   0.279   3.157
   16        1.233   1.645   0.279   3.157
--------------------------------------------------
tot          8.303   8.657  97.254 114.213



 magnetization (x)

# of ion       s       p       d       tot
------------------------------------------
    1       -0.002  -0.001  -0.005  -0.008
    2        0.002   0.001   0.005   0.009
    3       -0.001  -0.000   0.003   0.001
    4        0.001   0.000  -0.003  -0.001
    5        0.001   0.000  -0.003  -0.001
    6       -0.001  -0.000   0.003   0.001
    7        0.002   0.001   0.005   0.009
    8       -0.002  -0.001  -0.005  -0.008
    9        0.034   0.024   3.530   3.588
   10       -0.034  -0.024  -3.530  -3.588
   11       -0.037  -0.021  -3.572  -3.630
   12        0.037   0.021   3.572   3.630
   13        0.022   0.029   3.234   3.285
   14       -0.022  -0.029  -3.235  -3.287
   15        0.006   0.100  -0.007   0.100
   16       -0.006  -0.100   0.007  -0.100
--------------------------------------------------
tot          0.000   0.000   0.001   0.001


 total amount of memory used by VASP MPI-rank0   103628. kBytes
=======================================================================

   base      :      30000. kBytes
   nonlr-proj:       6799. kBytes
   fftplans  :       1269. kBytes
   grid      :       6573. kBytes
   one-center:        497. kBytes
   wavefun   :      58490. kBytes

  
  
 General timing and accounting informations for this job:
 ========================================================
  
                  Total CPU time used (sec):      406.244
                            User time (sec):      384.936
                          System time (sec):       21.308
                         Elapsed time (sec):      407.703
  
                   Maximum memory used (kb):      136756.
                   Average memory used (kb):           0.
  
                          Minor page faults:      7663495
                          Major page faults:           17
                 Voluntary context switches:         2419
