 vasp.5.4.4.18Apr17-6-g9f103f2a35 (build May 21 2018 20:56:50) complex           
 executed on             LinuxGNU date 2021.10.15  15:42:17
 running on   12 total cores
 distrk:  each k-point on   12 cores,    1 groups
 distr:  one band on NCORES_PER_BAND=   1 cores,   12 groups


--------------------------------------------------------------------------------------------------------


 INCAR:
 POTCAR:    PAW_PBE Ni 02Aug2007                  
 POTCAR:    PAW_PBE Mn 06Sep2000                  
 POTCAR:    PAW_PBE In 08Apr2002                  

 ----------------------------------------------------------------------------- 
|                                                                             |
|           W    W    AA    RRRRR   N    N  II  N    N   GGGG   !!!           |
|           W    W   A  A   R    R  NN   N  II  NN   N  G    G  !!!           |
|           W    W  A    A  R    R  N N  N  II  N N  N  G       !!!           |
|           W WW W  AAAAAA  RRRRR   N  N N  II  N  N N  G  GGG   !            |
|           WW  WW  A    A  R   R   N   NN  II  N   NN  G    G                |
|           W    W  A    A  R    R  N    N  II  N    N   GGGG   !!!           |
|                                                                             |
|      For optimal performance we recommend to set                            |
|        NCORE= 4 - approx SQRT( number of cores)                             |
|      NCORE specifies how many cores store one orbital (NPAR=cpu/NCORE).     |
|      This setting can  greatly improve the performance of VASP for DFT.     |
|      The default,   NCORE=1            might be grossly inefficient         |
|      on modern multi-core architectures or massively parallel machines.     |
|      Do your own testing !!!!                                               |
|      Unfortunately you need to use the default for GW and RPA calculations. |
|      (for HF NCORE is supported but not extensively tested yet)             |
|                                                                             |
 ----------------------------------------------------------------------------- 

 POTCAR:    PAW_PBE Ni 02Aug2007                  
   VRHFIN =Ni:                                                                  
   LEXCH  = PE                                                                  
   EATOM  =  1077.6739 eV,   79.2068 Ry                                         
                                                                                
   TITEL  = PAW_PBE Ni 02Aug2007                                                
   LULTRA =        F    use ultrasoft PP ?                                      
   IUNSCR =        1    unscreen: 0-lin 1-nonlin 2-no                           
   RPACOR =    2.000    partial core radius                                     
   POMASS =   58.690; ZVAL   =   10.000    mass and valenz                      
   RCORE  =    2.300    outmost cutoff radius                                   
   RWIGS  =    2.430; RWIGS  =    1.286    wigner-seitz radius (au A)           
   ENMAX  =  269.532; ENMIN  =  202.149 eV                                      
   RCLOC  =    1.201    cutoff for local pot                                    
   LCOR   =        T    correct aug charges                                     
   LPAW   =        T    paw PP                                                  
   EAUG   =  544.565                                                            
   DEXC   =    0.000                                                            
   RMAX   =    2.357    core radius for proj-oper                               
   RAUG   =    1.300    factor for augmentation sphere                          
   RDEP   =    2.390    radius for radial grids                                 
   RDEPT  =    1.838    core radius for aug-charge                              
                                                                                
   Atomic configuration                                                         
    9 entries                                                                   
     n  l   j            E        occ.                                          
     1  0  0.50     -8206.4253   2.0000                                         
     2  0  0.50      -976.1748   2.0000                                         
     2  1  1.50      -839.0571   6.0000                                         
     3  0  0.50      -105.9991   2.0000                                         
     3  1  1.50       -66.4603   6.0000                                         
     3  2  2.50        -4.6458   9.0000                                         
     4  0  0.50        -4.4926   1.0000                                         
     4  1  1.50        -4.0817   0.0000                                         
     4  3  2.50        -1.3606   0.0000                                         
   Description                                                                  
     l       E           TYP  RCUT    TYP  RCUT                                 
     2     -4.6457903     23  2.300                                             
     2     -6.0063729     23  2.300                                             
     0     -4.4925590     23  2.300                                             
     0      5.0102601     23  2.300                                             
     1     -2.7211652     23  2.300                                             
     1     16.5183231     23  2.300                                             
  local pseudopotential read in
  partial core-charges read in
  partial kinetic energy density read in
  atomic valenz-charges read in
  non local Contribution for L=           2  read in
    real space projection operators read in
  non local Contribution for L=           2  read in
    real space projection operators read in
  non local Contribution for L=           0  read in
    real space projection operators read in
  non local Contribution for L=           0  read in
    real space projection operators read in
  non local Contribution for L=           1  read in
    real space projection operators read in
  non local Contribution for L=           1  read in
    real space projection operators read in
    PAW grid and wavefunctions read in

   number of l-projection  operators is LMAX  =           6
   number of lm-projection operators is LMMAX =          18

 POTCAR:    PAW_PBE Mn 06Sep2000                  
   VRHFIN =Mn: d6 s1                                                            
   LEXCH  = PE                                                                  
   EATOM  =   416.7541 eV,   30.6306 Ry                                         
                                                                                
   TITEL  = PAW_PBE Mn 06Sep2000                                                
   LULTRA =        F    use ultrasoft PP ?                                      
   IUNSCR =        1    unscreen: 0-lin 1-nonlin 2-no                           
   RPACOR =    2.000    partial core radius                                     
   POMASS =   54.938; ZVAL   =    7.000    mass and valenz                      
   RCORE  =    2.300    outmost cutoff radius                                   
   RWIGS  =    2.500; RWIGS  =    1.323    wigner-seitz radius (au A)           
   ENMAX  =  269.864; ENMIN  =  202.398 eV                                      
   RCLOC  =    1.725    cutoff for local pot                                    
   LCOR   =        T    correct aug charges                                     
   LPAW   =        T    paw PP                                                  
   EAUG   =  500.711                                                            
   DEXC   =    0.000                                                            
   RMAX   =    2.343    core radius for proj-oper                               
   RAUG   =    1.300    factor for augmentation sphere                          
   RDEP   =    2.338    radius for radial grids                                 
   RDEPT  =    1.911    core radius for aug-charge                              
                                                                                
   Atomic configuration                                                         
    9 entries                                                                   
     n  l   j            E        occ.                                          
     1  0  0.50     -6424.8288   2.0000                                         
     2  0  0.50      -739.1154   2.0000                                         
     2  1  1.50      -625.3949   6.0000                                         
     3  0  0.50       -81.6100   2.0000                                         
     3  1  1.50       -50.4667   6.0000                                         
     3  2  2.50        -3.3745   6.0000                                         
     4  0  0.50        -4.1331   1.0000                                         
     4  1  0.50        -4.0817   0.0000                                         
     4  3  2.50        -1.3606   0.0000                                         
   Description                                                                  
     l       E           TYP  RCUT    TYP  RCUT                                 
     2     -3.3744664     23  2.300                                             
     2     -4.7350490     23  2.300                                             
     0     -4.1331408     23  2.300                                             
     0      7.6656614     23  2.300                                             
     1     -2.7211652     23  2.300                                             
     1     20.4087390     23  2.300                                             
  local pseudopotential read in
  partial core-charges read in
  partial kinetic energy density read in
  atomic valenz-charges read in
  non local Contribution for L=           2  read in
    real space projection operators read in
  non local Contribution for L=           2  read in
    real space projection operators read in
  non local Contribution for L=           0  read in
    real space projection operators read in
  non local Contribution for L=           0  read in
    real space projection operators read in
  non local Contribution for L=           1  read in
    real space projection operators read in
  non local Contribution for L=           1  read in
    real space projection operators read in
    PAW grid and wavefunctions read in

   number of l-projection  operators is LMAX  =           6
   number of lm-projection operators is LMMAX =          18

 POTCAR:    PAW_PBE In 08Apr2002                  
   VRHFIN =In: s2p1                                                             
   LEXCH  = PE                                                                  
   EATOM  =    53.7908 eV,    3.9535 Ry                                         
                                                                                
   TITEL  = PAW_PBE In 08Apr2002                                                
   LULTRA =        F    use ultrasoft PP ?                                      
   IUNSCR =        1    unscreen: 0-lin 1-nonlin 2-no                           
   RPACOR =    2.400    partial core radius                                     
   POMASS =  114.820; ZVAL   =    3.000    mass and valenz                      
   RCORE  =    3.100    outmost cutoff radius                                   
   RWIGS  =    3.170; RWIGS  =    1.677    wigner-seitz radius (au A)           
   ENMAX  =   95.934; ENMIN  =   71.951 eV                                      
   ICORE  =        3    local potential                                         
   LCOR   =        T    correct aug charges                                     
   LPAW   =        T    paw PP                                                  
   EAUG   =  237.125                                                            
   DEXC   =    0.000                                                            
   RMAX   =    3.168    core radius for proj-oper                               
   RAUG   =    1.300    factor for augmentation sphere                          
   RDEP   =    3.187    radius for radial grids                                 
   RDEPT  =    2.711    core radius for aug-charge                              
                                                                                
   Atomic configuration                                                         
   13 entries                                                                   
     n  l   j            E        occ.                                          
     1  0  0.50    -27747.9169   2.0000                                         
     2  0  0.50     -4154.4438   2.0000                                         
     2  1  1.50     -3728.4305   6.0000                                         
     3  0  0.50      -788.3680   2.0000                                         
     3  1  1.50      -648.9215   6.0000                                         
     3  2  2.50      -432.5893  10.0000                                         
     4  0  0.50      -119.6363   2.0000                                         
     4  1  1.50       -78.1086   6.0000                                         
     4  2  2.50       -18.6227  10.0000                                         
     5  0  0.50        -8.2107   2.0000                                         
     5  1  0.50        -2.5185   1.0000                                         
     5  2  2.50        -1.3606   0.0000                                         
     4  3  2.50        -2.7212   0.0000                                         
   Description                                                                  
     l       E           TYP  RCUT    TYP  RCUT                                 
     0     -8.2107306     23  3.100                                             
     0     -6.1485975     23  3.100                                             
     1     -2.5184867     23  3.100                                             
     1      3.2427302     23  3.100                                             
     2     -1.3605826     23  3.100                                             
     3     -1.3605826     23  3.100                                             
  local pseudopotential read in
  partial core-charges read in
  partial kinetic energy density read in
  atomic valenz-charges read in
  non local Contribution for L=           0  read in
    real space projection operators read in
  non local Contribution for L=           0  read in
    real space projection operators read in
  non local Contribution for L=           1  read in
    real space projection operators read in
  non local Contribution for L=           1  read in
    real space projection operators read in
  non local Contribution for L=           2  read in
    real space projection operators read in
    PAW grid and wavefunctions read in

   number of l-projection  operators is LMAX  =           5
   number of lm-projection operators is LMMAX =          13

 Optimization of the real space projectors (new method)

 maximal supplied QI-value         = 16.25
 optimisation between [QCUT,QGAM] = [ 11.86, 23.89] = [ 39.41,159.82] Ry 
 Optimized for a Real-space Cutoff    1.33 Angstroem

   l    n(q)    QCUT    max X(q) W(low)/X(q) W(high)/X(q)  e(spline) 
   2      9    11.864    60.317    0.21E-03    0.51E-03    0.25E-06
   2      9    11.864    55.921    0.21E-03    0.51E-03    0.26E-06
   0      9    11.864    51.690    0.22E-03    0.30E-04    0.17E-06
   0      9    11.864    30.015    0.20E-03    0.28E-04    0.15E-06
   1      9    11.864    18.849    0.76E-04    0.33E-03    0.17E-06
   1      9    11.864    14.624    0.60E-04    0.28E-03    0.15E-06
 Optimization of the real space projectors (new method)

 maximal supplied QI-value         = 16.25
 optimisation between [QCUT,QGAM] = [ 11.86, 23.89] = [ 39.41,159.82] Ry 
 Optimized for a Real-space Cutoff    1.36 Angstroem

   l    n(q)    QCUT    max X(q) W(low)/X(q) W(high)/X(q)  e(spline) 
   2      9    11.864   110.144    0.49E-03    0.50E-03    0.21E-06
   2      9    11.864   103.200    0.49E-03    0.51E-03    0.22E-06
   0     10    11.864    68.437    0.12E-03    0.41E-04    0.21E-06
   0     10    11.864    33.971    0.11E-03    0.36E-04    0.19E-06
   1      9    11.864    17.065    0.24E-03    0.26E-03    0.93E-07
   1      9    11.864    12.540    0.19E-03    0.20E-03    0.80E-07
 Optimization of the real space projectors (new method)

 maximal supplied QI-value         = 12.09
 optimisation between [QCUT,QGAM] = [ 11.97, 23.95] = [ 40.14,160.58] Ry 
 Optimized for a Real-space Cutoff    1.63 Angstroem

   l    n(q)    QCUT    max X(q) W(low)/X(q) W(high)/X(q)  e(spline) 
   0     12    11.973   106.980    0.33E-03    0.16E-03    0.25E-05
   0     12    11.973    81.086    0.37E-03    0.18E-03    0.28E-05
   1     11    11.973    53.097    0.22E-03    0.42E-03    0.40E-05
   1     11    11.973    32.621    0.20E-03    0.40E-03    0.37E-05
   2     11    11.973     8.820    0.30E-03    0.17E-03    0.41E-06
  PAW_PBE Ni 02Aug2007                  :
 energy of atom  1       EATOM=-1077.6739
 kinetic energy error for atom=    0.0027 (will be added to EATOM!!)
  PAW_PBE Mn 06Sep2000                  :
 energy of atom  2       EATOM= -416.7541
 kinetic energy error for atom=    0.0022 (will be added to EATOM!!)
  PAW_PBE In 08Apr2002                  :
 energy of atom  3       EATOM=  -53.7908
 kinetic energy error for atom=    0.0000 (will be added to EATOM!!)


 POSCAR: Ni2MnIn                                 
  positions in direct lattice
  velocities in cartesian coordinates
 exchange correlation table for  LEXCH =        8
   RHO(1)=    0.500       N(1)  =     2000
   RHO(2)=  100.500       N(2)  =     4000



--------------------------------------------------------------------------------------------------------


 ion  position               nearest neighbor table
   1  0.250  0.266  0.266-  13 2.48  14 2.48   9 2.59  12 2.59  10 2.59  11 2.59  16 2.69  15 2.69
                             3 2.79   5 2.79   2 2.98   2 2.98
   2  0.750  0.266  0.266-  13 2.48  14 2.48   9 2.59  12 2.59  10 2.59  11 2.59  16 2.69  15 2.69
                             4 2.79   6 2.79   1 2.98   1 2.98
   3  0.250  0.734  0.266-  13 2.48  14 2.48   9 2.59  12 2.59  10 2.59  11 2.59  16 2.69  15 2.69
                             1 2.79   7 2.79   4 2.98   4 2.98
   4  0.750  0.734  0.266-  13 2.48  14 2.48   9 2.59  12 2.59  10 2.59  11 2.59  16 2.69  15 2.69
                             2 2.79   8 2.79   3 2.98   3 2.98
   5  0.250  0.266  0.734-  13 2.48  14 2.48   9 2.59  12 2.59  10 2.59  11 2.59  16 2.69  15 2.69
                             7 2.79   1 2.79   6 2.98   6 2.98
   6  0.750  0.266  0.734-  13 2.48  14 2.48   9 2.59  12 2.59  10 2.59  11 2.59  16 2.69  15 2.69
                             8 2.79   2 2.79   5 2.98   5 2.98
   7  0.250  0.734  0.734-  13 2.48  14 2.48   9 2.59  12 2.59  10 2.59  11 2.59  16 2.69  15 2.69
                             5 2.79   3 2.79   8 2.98   8 2.98
   8  0.750  0.734  0.734-  13 2.48  14 2.48   9 2.59  12 2.59  10 2.59  11 2.59  16 2.69  15 2.69
                             6 2.79   4 2.79   7 2.98   7 2.98
   9  0.500  0.500  0.000-   1 2.59   2 2.59   3 2.59   4 2.59   5 2.59   6 2.59   7 2.59   8 2.59
                            10 2.98  13 2.98  16 2.98  13 2.98  16 2.98  10 2.98
  10  0.000  0.500  0.000-   1 2.59   2 2.59   3 2.59   4 2.59   5 2.59   6 2.59   7 2.59   8 2.59
                             9 2.98  14 2.98  15 2.98  14 2.98  15 2.98   9 2.98
  11  0.000  0.000  0.500-   1 2.59   2 2.59   3 2.59   4 2.59   5 2.59   6 2.59   7 2.59   8 2.59
                            12 2.98  14 2.98  15 2.98  15 2.98  14 2.98  12 2.98
  12  0.500  0.000  0.500-   1 2.59   2 2.59   3 2.59   4 2.59   5 2.59   6 2.59   7 2.59   8 2.59
                            11 2.98  13 2.98  16 2.98  16 2.98  13 2.98  11 2.98
  13  0.500  0.500  0.500-   1 2.48   2 2.48   3 2.48   4 2.48   5 2.48   6 2.48   7 2.48   8 2.48
                             9 2.98  12 2.98  14 2.98   9 2.98  12 2.98  14 2.98
  14  0.000  0.500  0.500-   1 2.48   2 2.48   3 2.48   4 2.48   5 2.48   6 2.48   7 2.48   8 2.48
                            10 2.98  11 2.98  13 2.98  10 2.98  11 2.98  13 2.98
  15  0.000  0.000  0.000-   1 2.69   2 2.69   3 2.69   4 2.69   5 2.69   6 2.69   7 2.69   8 2.69
                            10 2.98  11 2.98  16 2.98  11 2.98  10 2.98  16 2.98
  16  0.500  0.000  0.000-   1 2.69   2 2.69   3 2.69   4 2.69   5 2.69   6 2.69   7 2.69   8 2.69
                             9 2.98  12 2.98  15 2.98  12 2.98   9 2.98  15 2.98

  LATTYP: Found a simple cubic cell.
 ALAT       =     5.9659690399
  
  Lattice vectors:
  
 A1 = (   5.9659690399,   0.0000000000,   0.0000000000)
 A2 = (   0.0000000000,   5.9659690399,   0.0000000000)
 A3 = (   0.0000000000,   0.0000000000,   5.9659690399)


Analysis of symmetry for initial positions (statically):
=====================================================================
 Subroutine PRICEL returns:
 Original cell was already a primitive cell.
 

 Routine SETGRP: Setting up the symmetry group for a 
 simple cubic supercell.


 Subroutine GETGRP returns: Found 16 space group operations
 (whereof 16 operations were pure point group operations)
 out of a pool of 48 trial point group operations.


The static configuration has the point symmetry D_4h.


Analysis of symmetry for dynamics (positions and initial velocities):
=====================================================================
 Subroutine PRICEL returns:
 Original cell was already a primitive cell.
 

 Routine SETGRP: Setting up the symmetry group for a 
 simple cubic supercell.


 Subroutine GETGRP returns: Found 16 space group operations
 (whereof 16 operations were pure point group operations)
 out of a pool of 48 trial point group operations.


The dynamic configuration has the point symmetry D_4h.


Analysis of structural, dynamic, and magnetic symmetry:
=====================================================================
 Subroutine PRICEL returns:
 Original cell was already a primitive cell.
 

 Routine SETGRP: Setting up the symmetry group for a 
 simple cubic supercell.


 Subroutine GETGRP returns: Found  8 space group operations
 (whereof  8 operations were pure point group operations)
 out of a pool of 48 trial point group operations.


The magnetic configuration has the point symmetry D_2h.


 Subroutine INISYM returns: Found  8 space group operations
 (whereof  8 operations are pure point group operations),
 and found     1 'primitive' translations



 KPOINTS: k-points                                

Automatic generation of k-mesh.
Space group operators:
 irot       det(A)        alpha          n_x          n_y          n_z        tau_x        tau_y        tau_z
    1     1.000000     0.000000     1.000000     0.000000     0.000000     0.000000     0.000000     0.000000
    2    -1.000000     0.000000     1.000000     0.000000     0.000000     0.000000     0.000000     0.000000
    3     1.000000   180.000000     0.000000     0.000000     1.000000     0.000000     0.000000     0.000000
    4    -1.000000   180.000000     0.000000     0.000000     1.000000     0.000000     0.000000     0.000000
    5     1.000000   180.000000     1.000000     0.000000     0.000000     0.000000     0.000000     0.000000
    6    -1.000000   180.000000     1.000000     0.000000     0.000000     0.000000     0.000000     0.000000
    7     1.000000   180.000000     0.000000     1.000000     0.000000     0.000000     0.000000     0.000000
    8    -1.000000   180.000000     0.000000     1.000000     0.000000     0.000000     0.000000     0.000000
 
 Subroutine IBZKPT returns following result:
 ===========================================
 
 Found     64 irreducible k-points:
 
 Following reciprocal coordinates:
            Coordinates               Weight
  0.000000  0.000000  0.000000      1.000000
  0.142857  0.000000  0.000000      2.000000
  0.285714  0.000000  0.000000      2.000000
  0.428571  0.000000  0.000000      2.000000
  0.000000  0.142857  0.000000      2.000000
  0.142857  0.142857  0.000000      4.000000
  0.285714  0.142857  0.000000      4.000000
  0.428571  0.142857  0.000000      4.000000
  0.000000  0.285714  0.000000      2.000000
  0.142857  0.285714  0.000000      4.000000
  0.285714  0.285714  0.000000      4.000000
  0.428571  0.285714  0.000000      4.000000
  0.000000  0.428571  0.000000      2.000000
  0.142857  0.428571  0.000000      4.000000
  0.285714  0.428571  0.000000      4.000000
  0.428571  0.428571  0.000000      4.000000
  0.000000  0.000000  0.142857      2.000000
  0.142857  0.000000  0.142857      4.000000
  0.285714  0.000000  0.142857      4.000000
  0.428571  0.000000  0.142857      4.000000
  0.000000  0.142857  0.142857      4.000000
  0.142857  0.142857  0.142857      8.000000
  0.285714  0.142857  0.142857      8.000000
  0.428571  0.142857  0.142857      8.000000
  0.000000  0.285714  0.142857      4.000000
  0.142857  0.285714  0.142857      8.000000
  0.285714  0.285714  0.142857      8.000000
  0.428571  0.285714  0.142857      8.000000
  0.000000  0.428571  0.142857      4.000000
  0.142857  0.428571  0.142857      8.000000
  0.285714  0.428571  0.142857      8.000000
  0.428571  0.428571  0.142857      8.000000
  0.000000  0.000000  0.285714      2.000000
  0.142857  0.000000  0.285714      4.000000
  0.285714  0.000000  0.285714      4.000000
  0.428571  0.000000  0.285714      4.000000
  0.000000  0.142857  0.285714      4.000000
  0.142857  0.142857  0.285714      8.000000
  0.285714  0.142857  0.285714      8.000000
  0.428571  0.142857  0.285714      8.000000
  0.000000  0.285714  0.285714      4.000000
  0.142857  0.285714  0.285714      8.000000
  0.285714  0.285714  0.285714      8.000000
  0.428571  0.285714  0.285714      8.000000
  0.000000  0.428571  0.285714      4.000000
  0.142857  0.428571  0.285714      8.000000
  0.285714  0.428571  0.285714      8.000000
  0.428571  0.428571  0.285714      8.000000
  0.000000  0.000000  0.428571      2.000000
  0.142857  0.000000  0.428571      4.000000
  0.285714  0.000000  0.428571      4.000000
  0.428571  0.000000  0.428571      4.000000
  0.000000  0.142857  0.428571      4.000000
  0.142857  0.142857  0.428571      8.000000
  0.285714  0.142857  0.428571      8.000000
  0.428571  0.142857  0.428571      8.000000
  0.000000  0.285714  0.428571      4.000000
  0.142857  0.285714  0.428571      8.000000
  0.285714  0.285714  0.428571      8.000000
  0.428571  0.285714  0.428571      8.000000
  0.000000  0.428571  0.428571      4.000000
  0.142857  0.428571  0.428571      8.000000
  0.285714  0.428571  0.428571      8.000000
  0.428571  0.428571  0.428571      8.000000
 
 Following cartesian coordinates:
            Coordinates               Weight
  0.000000  0.000000  0.000000      1.000000
  0.137925  0.000000  0.000000      2.000000
  0.275850  0.000000  0.000000      2.000000
  0.413775  0.000000  0.000000      2.000000
  0.000000  0.137925  0.000000      2.000000
  0.137925  0.137925  0.000000      4.000000
  0.275850  0.137925  0.000000      4.000000
  0.413775  0.137925  0.000000      4.000000
  0.000000  0.275850  0.000000      2.000000
  0.137925  0.275850  0.000000      4.000000
  0.275850  0.275850  0.000000      4.000000
  0.413775  0.275850  0.000000      4.000000
  0.000000  0.413775  0.000000      2.000000
  0.137925  0.413775  0.000000      4.000000
  0.275850  0.413775  0.000000      4.000000
  0.413775  0.413775  0.000000      4.000000
  0.000000  0.000000  0.137925      2.000000
  0.137925  0.000000  0.137925      4.000000
  0.275850  0.000000  0.137925      4.000000
  0.413775  0.000000  0.137925      4.000000
  0.000000  0.137925  0.137925      4.000000
  0.137925  0.137925  0.137925      8.000000
  0.275850  0.137925  0.137925      8.000000
  0.413775  0.137925  0.137925      8.000000
  0.000000  0.275850  0.137925      4.000000
  0.137925  0.275850  0.137925      8.000000
  0.275850  0.275850  0.137925      8.000000
  0.413775  0.275850  0.137925      8.000000
  0.000000  0.413775  0.137925      4.000000
  0.137925  0.413775  0.137925      8.000000
  0.275850  0.413775  0.137925      8.000000
  0.413775  0.413775  0.137925      8.000000
  0.000000  0.000000  0.275850      2.000000
  0.137925  0.000000  0.275850      4.000000
  0.275850  0.000000  0.275850      4.000000
  0.413775  0.000000  0.275850      4.000000
  0.000000  0.137925  0.275850      4.000000
  0.137925  0.137925  0.275850      8.000000
  0.275850  0.137925  0.275850      8.000000
  0.413775  0.137925  0.275850      8.000000
  0.000000  0.275850  0.275850      4.000000
  0.137925  0.275850  0.275850      8.000000
  0.275850  0.275850  0.275850      8.000000
  0.413775  0.275850  0.275850      8.000000
  0.000000  0.413775  0.275850      4.000000
  0.137925  0.413775  0.275850      8.000000
  0.275850  0.413775  0.275850      8.000000
  0.413775  0.413775  0.275850      8.000000
  0.000000  0.000000  0.413775      2.000000
  0.137925  0.000000  0.413775      4.000000
  0.275850  0.000000  0.413775      4.000000
  0.413775  0.000000  0.413775      4.000000
  0.000000  0.137925  0.413775      4.000000
  0.137925  0.137925  0.413775      8.000000
  0.275850  0.137925  0.413775      8.000000
  0.413775  0.137925  0.413775      8.000000
  0.000000  0.275850  0.413775      4.000000
  0.137925  0.275850  0.413775      8.000000
  0.275850  0.275850  0.413775      8.000000
  0.413775  0.275850  0.413775      8.000000
  0.000000  0.413775  0.413775      4.000000
  0.137925  0.413775  0.413775      8.000000
  0.275850  0.413775  0.413775      8.000000
  0.413775  0.413775  0.413775      8.000000
 


--------------------------------------------------------------------------------------------------------




 Dimension of arrays:
   k-points           NKPTS =     64   k-points in BZ     NKDIM =     64   number of bands    NBANDS=     84
   number of dos      NEDOS =    301   number of ions     NIONS =     16
   non local maximal  LDIM  =      6   non local SUM 2l+1 LMDIM =     18
   total plane-waves  NPLWV =  46656
   max r-space proj   IRMAX =   4033   max aug-charges    IRDMAX=  24983
   dimension x,y,z NGX =    36 NGY =   36 NGZ =   36
   dimension x,y,z NGXF=    72 NGYF=   72 NGZF=   72
   support grid    NGXF=    72 NGYF=   72 NGZF=   72
   ions per type =               8   6   2
   NGX,Y,Z   is equivalent  to a cutoff of  10.03, 10.03, 10.03 a.u.
   NGXF,Y,Z  is equivalent  to a cutoff of  20.06, 20.06, 20.06 a.u.

 SYSTEM =  Testrun for NiMnIn                      
 POSCAR =  Ni2MnIn                                 

 Startparameter for this run:
   NWRITE =      2    write-flag & timer
   PREC   = normal    normal or accurate (medium, high low for compatibility)
   ISTART =      0    job   : 0-new  1-cont  2-samecut
   ICHARG =      2    charge: 1-file 2-atom 10-const
   ISPIN  =      2    spin polarized calculation?
   LNONCOLLINEAR =      F non collinear calculations
   LSORBIT =      F    spin-orbit coupling
   INIWAV =      1    electr: 0-lowe 1-rand  2-diag
   LASPH  =      F    aspherical Exc in radial PAW
   METAGGA=      F    non-selfconsistent MetaGGA calc.

 Electronic Relaxation 1
   ENCUT  =  550.0 eV  40.42 Ry    6.36 a.u.  11.41 11.41 11.41*2*pi/ulx,y,z
   ENINI  =  550.0     initial cutoff
   ENAUG  =  544.6 eV  augmentation charge cutoff
   NELM   =     60;   NELMIN=  2; NELMDL= -5     # of ELM steps 
   EDIFF  = 0.1E-04   stopping-criterion for ELM
   LREAL  =      T    real-space projection
   NLSPLINE    = F    spline interpolate recip. space projectors
   LCOMPAT=      F    compatible to vasp.4.4
   GGA_COMPAT  = T    GGA compatible to vasp.4.4-vasp.4.6
   LMAXPAW     = -100 max onsite density
   LMAXMIX     =    2 max onsite mixed and CHGCAR
   VOSKOWN=      0    Vosko Wilk Nusair interpolation
   ROPT   =   -0.00050  -0.00050  -0.00050
 Ionic relaxation
   EDIFFG = -.1E-01   stopping-criterion for IOM
   NSW    =   1000    number of steps for IOM
   NBLOCK =      1;   KBLOCK =   1000    inner block; outer block 
   IBRION =      2    ionic relax: 0-MD 1-quasi-New 2-CG
   NFREE  =      1    steps in history (QN), initial steepest desc. (CG)
   ISIF   =      2    stress and relaxation
   IWAVPR =     11    prediction:  0-non 1-charg 2-wave 3-comb
   ISYM   =      2    0-nonsym 1-usesym 2-fastsym
   LCORR  =      T    Harris-Foulkes like correction to forces

   POTIM  = 0.5000    time-step for ionic-motion
   TEIN   =    0.0    initial temperature
   TEBEG  =    0.0;   TEEND  =   0.0 temperature during run
   SMASS  =  -3.00    Nose mass-parameter (am)
   estimated Nose-frequenzy (Omega)   =  0.10E-29 period in steps =****** mass=  -0.813E-27a.u.
   SCALEE = 1.0000    scale energy and forces
   NPACO  =    256;   APACO  = 16.0  distance and # of slots for P.C.
   PSTRESS=    0.0 pullay stress

  Mass of Ions in am
   POMASS =  58.69 54.94114.82
  Ionic Valenz
   ZVAL   =  10.00  7.00  3.00
  Atomic Wigner-Seitz radii
   RWIGS  =  -1.00 -1.00 -1.00
  virtual crystal weights 
   VCA    =   1.00  1.00  1.00
   NELECT =     128.0000    total number of electrons
   NUPDOWN=      -1.0000    fix difference up-down

 DOS related values:
   EMIN   =  10.00;   EMAX   =-10.00  energy-range for DOS
   EFERMI =   0.00
   ISMEAR =     0;   SIGMA  =   0.02  broadening in eV -4-tet -1-fermi 0-gaus

 Electronic relaxation 2 (details)
   IALGO  =     68    algorithm
   LDIAG  =      T    sub-space diagonalisation (order eigenvalues)
   LSUBROT=      F    optimize rotation matrix (better conditioning)
   TURBO    =      0    0=normal 1=particle mesh
   IRESTART =      0    0=no restart 2=restart with 2 vectors
   NREBOOT  =      0    no. of reboots
   NMIN     =      0    reboot dimension
   EREF     =   0.00    reference energy to select bands
   IMIX   =      4    mixing-type and parameters
     AMIX     =   0.40;   BMIX     =  1.00
     AMIX_MAG =   1.60;   BMIX_MAG =  1.00
     AMIN     =   0.10
     WC   =   100.;   INIMIX=   1;  MIXPRE=   1;  MAXMIX= -45

 Intra band minimization:
   WEIMIN = 0.0010     energy-eigenvalue tresh-hold
   EBREAK =  0.30E-07  absolut break condition
   DEPER  =   0.30     relativ break condition  

   TIME   =   0.40     timestep for ELM

  volume/ion in A,a.u.               =      13.27        89.56
  Fermi-wavevector in a.u.,A,eV,Ry     =   1.382920  2.613340 26.020715  1.912469
  Thomas-Fermi vector in A             =   2.507567

 Write flags
   LWAVE        =      F    write WAVECAR
   LDOWNSAMPLE  =      F    k-point downsampling of WAVECAR
   LCHARG       =      T    write CHGCAR
   LVTOT        =      F    write LOCPOT, total local potential
   LVHAR        =      F    write LOCPOT, Hartree potential only
   LELF         =      F    write electronic localiz. function (ELF)
   LORBIT       =     11    0 simple, 1 ext, 2 COOP (PROOUT), +10 PAW based schemes


 Dipole corrections
   LMONO  =      F    monopole corrections only (constant potential shift)
   LDIPOL =      F    correct potential (dipole corrections)
   IDIPOL =      0    1-x, 2-y, 3-z, 4-all directions 
   EPSILON=  1.0000000 bulk dielectric constant

 Exchange correlation treatment:
   GGA     =    --    GGA type
   LEXCH   =     8    internal setting for exchange type
   VOSKOWN=      0    Vosko Wilk Nusair interpolation
   LHFCALC =     F    Hartree Fock is set to
   LHFONE  =     F    Hartree Fock one center treatment
   AEXX    =    0.0000 exact exchange contribution

 Linear response parameters
   LEPSILON=     F    determine dielectric tensor
   LRPA    =     F    only Hartree local field effects (RPA)
   LNABLA  =     F    use nabla operator in PAW spheres
   LVEL    =     F    velocity operator in full k-point grid
   LINTERFAST=   F  fast interpolation
   KINTER  =     0    interpolate to denser k-point grid
   CSHIFT  =0.1000    complex shift for real part using Kramers Kronig
   OMEGAMAX=  -1.0    maximum frequency
   DEG_THRESHOLD= 0.2000000E-02 threshold for treating states as degnerate
   RTIME   =   -0.100 relaxation time in fs
  (WPLASMAI=    0.000 imaginary part of plasma frequency in eV, 0.658/RTIME)
   DFIELD  = 0.0000000 0.0000000 0.0000000 field for delta impulse in time

 Orbital magnetization related:
   ORBITALMAG=     F  switch on orbital magnetization
   LCHIMAG   =     F  perturbation theory with respect to B field
   DQ        =  0.001000  dq finite difference perturbation B field
   LLRAUG    =     F  two centre corrections for induced B field



--------------------------------------------------------------------------------------------------------


 conjugate gradient relaxation of ions
 charge density and potential will be updated during run
 spin polarized calculation
 RMM-DIIS sequential band-by-band and
  variant of blocked Davidson during initial phase
 perform sub-space diagonalisation
    before iterative eigenvector-optimisation
 modified Broyden-mixing scheme, WC =      100.0
 initial mixing is a Kerker type mixing with AMIX =  0.4000 and BMIX =      1.0000
 Hartree-type preconditioning will be used
 using additional bands           20
 real space projection scheme for non local part
 use partial core corrections
 calculate Harris-corrections to forces   (improved forces if not selfconsistent)
 use gradient corrections 
 use of overlap-Matrix (Vanderbilt PP)
 Gauss-broadening in eV      SIGMA  =   0.02


--------------------------------------------------------------------------------------------------------


  energy-cutoff  :      550.00
  volume of cell :      212.35
      direct lattice vectors                 reciprocal lattice vectors
     5.965969040  0.000000000  0.000000000     0.167617363  0.000000000  0.000000000
     0.000000000  5.965969040  0.000000000     0.000000000  0.167617363  0.000000000
     0.000000000  0.000000000  5.965969040     0.000000000  0.000000000  0.167617363

  length of vectors
     5.965969040  5.965969040  5.965969040     0.167617363  0.167617363  0.167617363



 k-points in units of 2pi/SCALE and weight: k-points                                
   0.00000000  0.00000000  0.00000000       0.003
   0.13792514  0.00000000  0.00000000       0.006
   0.27585029  0.00000000  0.00000000       0.006
   0.41377543  0.00000000  0.00000000       0.006
   0.00000000  0.13792514  0.00000000       0.006
   0.13792514  0.13792514  0.00000000       0.012
   0.27585029  0.13792514  0.00000000       0.012
   0.41377543  0.13792514  0.00000000       0.012
   0.00000000  0.27585029  0.00000000       0.006
   0.13792514  0.27585029  0.00000000       0.012
   0.27585029  0.27585029  0.00000000       0.012
   0.41377543  0.27585029  0.00000000       0.012
   0.00000000  0.41377543  0.00000000       0.006
   0.13792514  0.41377543  0.00000000       0.012
   0.27585029  0.41377543  0.00000000       0.012
   0.41377543  0.41377543  0.00000000       0.012
   0.00000000  0.00000000  0.13792514       0.006
   0.13792514  0.00000000  0.13792514       0.012
   0.27585029  0.00000000  0.13792514       0.012
   0.41377543  0.00000000  0.13792514       0.012
   0.00000000  0.13792514  0.13792514       0.012
   0.13792514  0.13792514  0.13792514       0.023
   0.27585029  0.13792514  0.13792514       0.023
   0.41377543  0.13792514  0.13792514       0.023
   0.00000000  0.27585029  0.13792514       0.012
   0.13792514  0.27585029  0.13792514       0.023
   0.27585029  0.27585029  0.13792514       0.023
   0.41377543  0.27585029  0.13792514       0.023
   0.00000000  0.41377543  0.13792514       0.012
   0.13792514  0.41377543  0.13792514       0.023
   0.27585029  0.41377543  0.13792514       0.023
   0.41377543  0.41377543  0.13792514       0.023
   0.00000000  0.00000000  0.27585029       0.006
   0.13792514  0.00000000  0.27585029       0.012
   0.27585029  0.00000000  0.27585029       0.012
   0.41377543  0.00000000  0.27585029       0.012
   0.00000000  0.13792514  0.27585029       0.012
   0.13792514  0.13792514  0.27585029       0.023
   0.27585029  0.13792514  0.27585029       0.023
   0.41377543  0.13792514  0.27585029       0.023
   0.00000000  0.27585029  0.27585029       0.012
   0.13792514  0.27585029  0.27585029       0.023
   0.27585029  0.27585029  0.27585029       0.023
   0.41377543  0.27585029  0.27585029       0.023
   0.00000000  0.41377543  0.27585029       0.012
   0.13792514  0.41377543  0.27585029       0.023
   0.27585029  0.41377543  0.27585029       0.023
   0.41377543  0.41377543  0.27585029       0.023
   0.00000000  0.00000000  0.41377543       0.006
   0.13792514  0.00000000  0.41377543       0.012
   0.27585029  0.00000000  0.41377543       0.012
   0.41377543  0.00000000  0.41377543       0.012
   0.00000000  0.13792514  0.41377543       0.012
   0.13792514  0.13792514  0.41377543       0.023
   0.27585029  0.13792514  0.41377543       0.023
   0.41377543  0.13792514  0.41377543       0.023
   0.00000000  0.27585029  0.41377543       0.012
   0.13792514  0.27585029  0.41377543       0.023
   0.27585029  0.27585029  0.41377543       0.023
   0.41377543  0.27585029  0.41377543       0.023
   0.00000000  0.41377543  0.41377543       0.012
   0.13792514  0.41377543  0.41377543       0.023
   0.27585029  0.41377543  0.41377543       0.023
   0.41377543  0.41377543  0.41377543       0.023

 k-points in reciprocal lattice and weights: k-points                                
   0.00000000  0.00000000  0.00000000       0.003
   0.14285714  0.00000000  0.00000000       0.006
   0.28571429  0.00000000  0.00000000       0.006
   0.42857143  0.00000000  0.00000000       0.006
   0.00000000  0.14285714  0.00000000       0.006
   0.14285714  0.14285714  0.00000000       0.012
   0.28571429  0.14285714  0.00000000       0.012
   0.42857143  0.14285714  0.00000000       0.012
   0.00000000  0.28571429  0.00000000       0.006
   0.14285714  0.28571429  0.00000000       0.012
   0.28571429  0.28571429  0.00000000       0.012
   0.42857143  0.28571429  0.00000000       0.012
   0.00000000  0.42857143  0.00000000       0.006
   0.14285714  0.42857143  0.00000000       0.012
   0.28571429  0.42857143  0.00000000       0.012
   0.42857143  0.42857143  0.00000000       0.012
   0.00000000  0.00000000  0.14285714       0.006
   0.14285714  0.00000000  0.14285714       0.012
   0.28571429  0.00000000  0.14285714       0.012
   0.42857143  0.00000000  0.14285714       0.012
   0.00000000  0.14285714  0.14285714       0.012
   0.14285714  0.14285714  0.14285714       0.023
   0.28571429  0.14285714  0.14285714       0.023
   0.42857143  0.14285714  0.14285714       0.023
   0.00000000  0.28571429  0.14285714       0.012
   0.14285714  0.28571429  0.14285714       0.023
   0.28571429  0.28571429  0.14285714       0.023
   0.42857143  0.28571429  0.14285714       0.023
   0.00000000  0.42857143  0.14285714       0.012
   0.14285714  0.42857143  0.14285714       0.023
   0.28571429  0.42857143  0.14285714       0.023
   0.42857143  0.42857143  0.14285714       0.023
   0.00000000  0.00000000  0.28571429       0.006
   0.14285714  0.00000000  0.28571429       0.012
   0.28571429  0.00000000  0.28571429       0.012
   0.42857143  0.00000000  0.28571429       0.012
   0.00000000  0.14285714  0.28571429       0.012
   0.14285714  0.14285714  0.28571429       0.023
   0.28571429  0.14285714  0.28571429       0.023
   0.42857143  0.14285714  0.28571429       0.023
   0.00000000  0.28571429  0.28571429       0.012
   0.14285714  0.28571429  0.28571429       0.023
   0.28571429  0.28571429  0.28571429       0.023
   0.42857143  0.28571429  0.28571429       0.023
   0.00000000  0.42857143  0.28571429       0.012
   0.14285714  0.42857143  0.28571429       0.023
   0.28571429  0.42857143  0.28571429       0.023
   0.42857143  0.42857143  0.28571429       0.023
   0.00000000  0.00000000  0.42857143       0.006
   0.14285714  0.00000000  0.42857143       0.012
   0.28571429  0.00000000  0.42857143       0.012
   0.42857143  0.00000000  0.42857143       0.012
   0.00000000  0.14285714  0.42857143       0.012
   0.14285714  0.14285714  0.42857143       0.023
   0.28571429  0.14285714  0.42857143       0.023
   0.42857143  0.14285714  0.42857143       0.023
   0.00000000  0.28571429  0.42857143       0.012
   0.14285714  0.28571429  0.42857143       0.023
   0.28571429  0.28571429  0.42857143       0.023
   0.42857143  0.28571429  0.42857143       0.023
   0.00000000  0.42857143  0.42857143       0.012
   0.14285714  0.42857143  0.42857143       0.023
   0.28571429  0.42857143  0.42857143       0.023
   0.42857143  0.42857143  0.42857143       0.023

 position of ions in fractional coordinates (direct lattice) 
   0.25001776  0.26585019  0.26584922
   0.74998224  0.26585019  0.26584922
   0.25001776  0.73414981  0.26584922
   0.74998224  0.73414981  0.26584922
   0.25001776  0.26585019  0.73415078
   0.74998224  0.26585019  0.73415078
   0.25001776  0.73414981  0.73415078
   0.74998224  0.73414981  0.73415078
   0.50000000  0.50000000  0.00000000
   0.00000000  0.50000000  0.00000000
   0.00000000  0.00000000  0.50000000
   0.50000000  0.00000000  0.50000000
   0.50000000  0.50000000  0.50000000
   0.00000000  0.50000000  0.50000000
   0.00000000  0.00000000  0.00000000
   0.50000000  0.00000000  0.00000000

 position of ions in cartesian coordinates  (Angst):
   1.49159819  1.58605398  1.58604824
   4.47437085  1.58605398  1.58604824
   1.49159819  4.37991506  1.58604824
   4.47437085  4.37991506  1.58604824
   1.49159819  1.58605398  4.37992080
   4.47437085  1.58605398  4.37992080
   1.49159819  4.37991506  4.37992080
   4.47437085  4.37991506  4.37992080
   2.98298452  2.98298452  0.00000000
   0.00000000  2.98298452  0.00000000
   0.00000000  0.00000000  2.98298452
   2.98298452  0.00000000  2.98298452
   2.98298452  2.98298452  2.98298452
   0.00000000  2.98298452  2.98298452
   0.00000000  0.00000000  0.00000000
   2.98298452  0.00000000  0.00000000



--------------------------------------------------------------------------------------------------------


 k-point  1 :   0.0000 0.0000 0.0000  plane waves:    6235
 k-point  2 :   0.1429 0.0000 0.0000  plane waves:    6211
 k-point  3 :   0.2857 0.0000 0.0000  plane waves:    6227
 k-point  4 :   0.4286 0.0000 0.0000  plane waves:    6222
 k-point  5 :   0.0000 0.1429 0.0000  plane waves:    6211
 k-point  6 :   0.1429 0.1429 0.0000  plane waves:    6226
 k-point  7 :   0.2857 0.1429 0.0000  plane waves:    6226
 k-point  8 :   0.4286 0.1429 0.0000  plane waves:    6222
 k-point  9 :   0.0000 0.2857 0.0000  plane waves:    6227
 k-point 10 :   0.1429 0.2857 0.0000  plane waves:    6226
 k-point 11 :   0.2857 0.2857 0.0000  plane waves:    6222
 k-point 12 :   0.4286 0.2857 0.0000  plane waves:    6217
 k-point 13 :   0.0000 0.4286 0.0000  plane waves:    6222
 k-point 14 :   0.1429 0.4286 0.0000  plane waves:    6222
 k-point 15 :   0.2857 0.4286 0.0000  plane waves:    6217
 k-point 16 :   0.4286 0.4286 0.0000  plane waves:    6220
 k-point 17 :   0.0000 0.0000 0.1429  plane waves:    6211
 k-point 18 :   0.1429 0.0000 0.1429  plane waves:    6226
 k-point 19 :   0.2857 0.0000 0.1429  plane waves:    6226
 k-point 20 :   0.4286 0.0000 0.1429  plane waves:    6222
 k-point 21 :   0.0000 0.1429 0.1429  plane waves:    6226
 k-point 22 :   0.1429 0.1429 0.1429  plane waves:    6235
 k-point 23 :   0.2857 0.1429 0.1429  plane waves:    6228
 k-point 24 :   0.4286 0.1429 0.1429  plane waves:    6231
 k-point 25 :   0.0000 0.2857 0.1429  plane waves:    6226
 k-point 26 :   0.1429 0.2857 0.1429  plane waves:    6228
 k-point 27 :   0.2857 0.2857 0.1429  plane waves:    6214
 k-point 28 :   0.4286 0.2857 0.1429  plane waves:    6227
 k-point 29 :   0.0000 0.4286 0.1429  plane waves:    6222
 k-point 30 :   0.1429 0.4286 0.1429  plane waves:    6231
 k-point 31 :   0.2857 0.4286 0.1429  plane waves:    6227
 k-point 32 :   0.4286 0.4286 0.1429  plane waves:    6217
 k-point 33 :   0.0000 0.0000 0.2857  plane waves:    6227
 k-point 34 :   0.1429 0.0000 0.2857  plane waves:    6226
 k-point 35 :   0.2857 0.0000 0.2857  plane waves:    6222
 k-point 36 :   0.4286 0.0000 0.2857  plane waves:    6217
 k-point 37 :   0.0000 0.1429 0.2857  plane waves:    6226
 k-point 38 :   0.1429 0.1429 0.2857  plane waves:    6228
 k-point 39 :   0.2857 0.1429 0.2857  plane waves:    6214
 k-point 40 :   0.4286 0.1429 0.2857  plane waves:    6227
 k-point 41 :   0.0000 0.2857 0.2857  plane waves:    6222
 k-point 42 :   0.1429 0.2857 0.2857  plane waves:    6214
 k-point 43 :   0.2857 0.2857 0.2857  plane waves:    6217
 k-point 44 :   0.4286 0.2857 0.2857  plane waves:    6220
 k-point 45 :   0.0000 0.4286 0.2857  plane waves:    6217
 k-point 46 :   0.1429 0.4286 0.2857  plane waves:    6227
 k-point 47 :   0.2857 0.4286 0.2857  plane waves:    6220
 k-point 48 :   0.4286 0.4286 0.2857  plane waves:    6200
 k-point 49 :   0.0000 0.0000 0.4286  plane waves:    6222
 k-point 50 :   0.1429 0.0000 0.4286  plane waves:    6222
 k-point 51 :   0.2857 0.0000 0.4286  plane waves:    6217
 k-point 52 :   0.4286 0.0000 0.4286  plane waves:    6220
 k-point 53 :   0.0000 0.1429 0.4286  plane waves:    6222
 k-point 54 :   0.1429 0.1429 0.4286  plane waves:    6231
 k-point 55 :   0.2857 0.1429 0.4286  plane waves:    6227
 k-point 56 :   0.4286 0.1429 0.4286  plane waves:    6217
 k-point 57 :   0.0000 0.2857 0.4286  plane waves:    6217
 k-point 58 :   0.1429 0.2857 0.4286  plane waves:    6227
 k-point 59 :   0.2857 0.2857 0.4286  plane waves:    6220
 k-point 60 :   0.4286 0.2857 0.4286  plane waves:    6200
 k-point 61 :   0.0000 0.4286 0.4286  plane waves:    6220
 k-point 62 :   0.1429 0.4286 0.4286  plane waves:    6217
 k-point 63 :   0.2857 0.4286 0.4286  plane waves:    6200
 k-point 64 :   0.4286 0.4286 0.4286  plane waves:    6179

 maximum and minimum number of plane-waves per node :      6235     6179

 maximum number of plane-waves:      6235
 maximum index in each direction: 
   IXMAX=   11   IYMAX=   11   IZMAX=   11
   IXMIN=  -11   IYMIN=  -11   IZMIN=  -11


 serial   3D FFT for wavefunctions
 parallel 3D FFT for charge:
    minimum data exchange during FFTs selected (reduces bandwidth)


 total amount of memory used by VASP MPI-rank0   138732. kBytes
=======================================================================

   base      :      30000. kBytes
   nonlr-proj:       6808. kBytes
   fftplans  :       1269. kBytes
   grid      :       6573. kBytes
   one-center:        497. kBytes
   wavefun   :      93585. kBytes

     INWAV:  cpu time    0.0000: real time    0.0001
 Broyden mixing: mesh for mixing (old mesh)
   NGX = 23   NGY = 23   NGZ = 23
  (NGX  = 72   NGY  = 72   NGZ  = 72)
  gives a total of  12167 points

 initial charge density was supplied:
 charge density of overlapping atoms calculated
 number of electron     128.0000000 magnetization       0.8000000
 keeping initial charge density in first step


--------------------------------------------------------------------------------------------------------


 Maximum index for non-local projection operator         3887
 Maximum index for augmentation-charges         2111 (set IRDMAX)


--------------------------------------------------------------------------------------------------------


 First call to EWALD:  gamma=   0.297
 Maximum number of real-space cells 3x 3x 3
 Maximum number of reciprocal cells 3x 3x 3

    FEWALD:  cpu time    0.0020: real time    0.0020


--------------------------------------- Iteration      1(   1)  ---------------------------------------


    POTLOK:  cpu time    0.1156: real time    0.1333
    SETDIJ:  cpu time    0.0383: real time    0.0383
     EDDAV:  cpu time   54.0385: real time   54.1209
       DOS:  cpu time    0.0059: real time    0.0059
    --------------------------------------------
      LOOP:  cpu time   54.1982: real time   54.2985

 eigenvalue-minimisations  : 21504
 total energy-change (2. order) : 0.1066819E+04  (-0.5416042E+04)
 number of electron     128.0000000 magnetization       0.8000000
 augmentation part      128.0000000 magnetization       0.8000000

 Free energy of the ion-electron system (eV)
  ---------------------------------------------------
  alpha Z        PSCENC =       529.91275261
  Ewald energy   TEWEN  =     -9192.31517919
  -Hartree energ DENC   =     -3229.29305194
  -exchange      EXHF   =         0.00000000
  -V(xc)+E(xc)   XCENC  =        78.28878915
  PAW double counting   =     10320.96726947   -10647.99417394
  entropy T*S    EENTRO =        -0.00121425
  eigenvalues    EBANDS =      1977.79229744
  atomic energy  EATOM  =     11229.46195210
  Solvation  Ediel_sol  =         0.00000000
  ---------------------------------------------------
  free energy    TOTEN  =      1066.81944146 eV

  energy without entropy =     1066.82065570  energy(sigma->0) =     1066.82004858


--------------------------------------------------------------------------------------------------------




--------------------------------------- Iteration      1(   2)  ---------------------------------------


     EDDAV:  cpu time   53.7948: real time   53.9714
       DOS:  cpu time    0.0058: real time    0.0058
    --------------------------------------------
      LOOP:  cpu time   53.8006: real time   53.9772

 eigenvalue-minimisations  : 21504
 total energy-change (2. order) :-0.1065172E+04  (-0.1032175E+04)
 number of electron     128.0000000 magnetization       0.8000000
 augmentation part      128.0000000 magnetization       0.8000000

 Free energy of the ion-electron system (eV)
  ---------------------------------------------------
  alpha Z        PSCENC =       529.91275261
  Ewald energy   TEWEN  =     -9192.31517919
  -Hartree energ DENC   =     -3229.29305194
  -exchange      EXHF   =         0.00000000
  -V(xc)+E(xc)   XCENC  =        78.28878915
  PAW double counting   =     10320.96726947   -10647.99417394
  entropy T*S    EENTRO =        -0.00303921
  eigenvalues    EBANDS =       912.62168590
  atomic energy  EATOM  =     11229.46195210
  Solvation  Ediel_sol  =         0.00000000
  ---------------------------------------------------
  free energy    TOTEN  =         1.64700495 eV

  energy without entropy =        1.65004415  energy(sigma->0) =        1.64852455


--------------------------------------------------------------------------------------------------------




--------------------------------------- Iteration      1(   3)  ---------------------------------------


     EDDAV:  cpu time   58.8602: real time   59.0333
       DOS:  cpu time    0.0060: real time    0.0060
    --------------------------------------------
      LOOP:  cpu time   58.8662: real time   59.0393

 eigenvalue-minimisations  : 24000
 total energy-change (2. order) :-0.1109129E+03  (-0.9999971E+02)
 number of electron     128.0000000 magnetization       0.8000000
 augmentation part      128.0000000 magnetization       0.8000000

 Free energy of the ion-electron system (eV)
  ---------------------------------------------------
  alpha Z        PSCENC =       529.91275261
  Ewald energy   TEWEN  =     -9192.31517919
  -Hartree energ DENC   =     -3229.29305194
  -exchange      EXHF   =         0.00000000
  -V(xc)+E(xc)   XCENC  =        78.28878915
  PAW double counting   =     10320.96726947   -10647.99417394
  entropy T*S    EENTRO =        -0.00309497
  eigenvalues    EBANDS =       801.70883608
  atomic energy  EATOM  =     11229.46195210
  Solvation  Ediel_sol  =         0.00000000
  ---------------------------------------------------
  free energy    TOTEN  =      -109.26590064 eV

  energy without entropy =     -109.26280567  energy(sigma->0) =     -109.26435315


--------------------------------------------------------------------------------------------------------




--------------------------------------- Iteration      1(   4)  ---------------------------------------


     EDDAV:  cpu time   76.8493: real time   76.9814
       DOS:  cpu time    0.0059: real time    0.0059
    --------------------------------------------
      LOOP:  cpu time   76.8552: real time   76.9873

 eigenvalue-minimisations  : 33096
 total energy-change (2. order) :-0.7091468E+01  (-0.6700327E+01)
 number of electron     128.0000000 magnetization       0.8000000
 augmentation part      128.0000000 magnetization       0.8000000

 Free energy of the ion-electron system (eV)
  ---------------------------------------------------
  alpha Z        PSCENC =       529.91275261
  Ewald energy   TEWEN  =     -9192.31517919
  -Hartree energ DENC   =     -3229.29305194
  -exchange      EXHF   =         0.00000000
  -V(xc)+E(xc)   XCENC  =        78.28878915
  PAW double counting   =     10320.96726947   -10647.99417394
  entropy T*S    EENTRO =        -0.00336893
  eigenvalues    EBANDS =       794.61764197
  atomic energy  EATOM  =     11229.46195210
  Solvation  Ediel_sol  =         0.00000000
  ---------------------------------------------------
  free energy    TOTEN  =      -116.35736871 eV

  energy without entropy =     -116.35399977  energy(sigma->0) =     -116.35568424


--------------------------------------------------------------------------------------------------------




--------------------------------------- Iteration      1(   5)  ---------------------------------------


     EDDAV:  cpu time   74.1489: real time   74.2841
       DOS:  cpu time    0.0058: real time    0.0058
    CHARGE:  cpu time    1.0712: real time    1.0722
    MIXING:  cpu time    0.0023: real time    0.0023
    --------------------------------------------
      LOOP:  cpu time   75.2282: real time   75.3644

 eigenvalue-minimisations  : 31812
 total energy-change (2. order) :-0.2344991E+00  (-0.2334503E+00)
 number of electron     127.9999692 magnetization       0.3588221
 augmentation part       60.5805473 magnetization       0.3267022

 Broyden mixing:
  rms(total) = 0.34591E+01    rms(broyden)= 0.34591E+01
  rms(prec ) = 0.53219E+01
  weight for this iteration     100.00

 Free energy of the ion-electron system (eV)
  ---------------------------------------------------
  alpha Z        PSCENC =       529.91275261
  Ewald energy   TEWEN  =     -9192.31517919
  -Hartree energ DENC   =     -3229.29305194
  -exchange      EXHF   =         0.00000000
  -V(xc)+E(xc)   XCENC  =        78.28878915
  PAW double counting   =     10320.96726947   -10647.99417394
  entropy T*S    EENTRO =        -0.00333134
  eigenvalues    EBANDS =       794.38310528
  atomic energy  EATOM  =     11229.46195210
  Solvation  Ediel_sol  =         0.00000000
  ---------------------------------------------------
  free energy    TOTEN  =      -116.59186780 eV

  energy without entropy =     -116.58853646  energy(sigma->0) =     -116.59020213


--------------------------------------------------------------------------------------------------------




--------------------------------------- Iteration      1(   6)  ---------------------------------------


    POTLOK:  cpu time    0.1102: real time    0.1168
    SETDIJ:  cpu time    0.0379: real time    0.0379
    EDDIAG:  cpu time    5.8666: real time    5.8765
  RMM-DIIS:  cpu time   22.9966: real time   23.0232
    ORTHCH:  cpu time    1.0767: real time    1.0776
       DOS:  cpu time    0.0060: real time    0.0061
    CHARGE:  cpu time    1.0773: real time    1.0805
    MIXING:  cpu time    0.0025: real time    0.0025
    --------------------------------------------
      LOOP:  cpu time   31.1738: real time   31.2210

 eigenvalue-minimisations  : 21504
 total energy-change (2. order) : 0.7401181E+01  (-0.1589273E+02)
 number of electron     127.9999786 magnetization       0.4290426
 augmentation part       69.6765779 magnetization       0.2507199

 Broyden mixing:
  rms(total) = 0.43995E+01    rms(broyden)= 0.43994E+01
  rms(prec ) = 0.57891E+01
  weight for this iteration     100.00

 eigenvalues of (default mixing * dielectric matrix)
  average eigenvalue GAMMA=   0.2306
  0.2306

 Free energy of the ion-electron system (eV)
  ---------------------------------------------------
  alpha Z        PSCENC =       529.91275261
  Ewald energy   TEWEN  =     -9192.31517919
  -Hartree energ DENC   =     -2993.23038649
  -exchange      EXHF   =         0.00000000
  -V(xc)+E(xc)   XCENC  =        65.83198201
  PAW double counting   =     11108.85843152   -11401.80836491
  entropy T*S    EENTRO =        -0.00488291
  eigenvalues    EBANDS =       544.10300805
  atomic energy  EATOM  =     11229.46195210
  Solvation  Ediel_sol  =         0.00000000
  ---------------------------------------------------
  free energy    TOTEN  =      -109.19068722 eV

  energy without entropy =     -109.18580431  energy(sigma->0) =     -109.18824576


--------------------------------------------------------------------------------------------------------




--------------------------------------- Iteration      1(   7)  ---------------------------------------


    POTLOK:  cpu time    0.1074: real time    0.1076
    SETDIJ:  cpu time    0.0365: real time    0.0365
    EDDIAG:  cpu time    5.8933: real time    5.9027
  RMM-DIIS:  cpu time   23.0562: real time   23.0949
    ORTHCH:  cpu time    1.0873: real time    1.0910
       DOS:  cpu time    0.0061: real time    0.0062
    CHARGE:  cpu time    1.0815: real time    1.0828
    MIXING:  cpu time    0.0025: real time    0.0025
    --------------------------------------------
      LOOP:  cpu time   31.2709: real time   31.3242

 eigenvalue-minimisations  : 21552
 total energy-change (2. order) : 0.3015487E+00  (-0.2649903E+01)
 number of electron     127.9999644 magnetization       0.3453037
 augmentation part       70.3548668 magnetization       0.4771265

 Broyden mixing:
  rms(total) = 0.29346E+01    rms(broyden)= 0.29346E+01
  rms(prec ) = 0.47121E+01
  weight for this iteration     100.00

 eigenvalues of (default mixing * dielectric matrix)
  average eigenvalue GAMMA=   0.4689
  0.4689  0.4689

 Free energy of the ion-electron system (eV)
  ---------------------------------------------------
  alpha Z        PSCENC =       529.91275261
  Ewald energy   TEWEN  =     -9192.31517919
  -Hartree energ DENC   =     -2986.94215056
  -exchange      EXHF   =         0.00000000
  -V(xc)+E(xc)   XCENC  =        67.12598649
  PAW double counting   =     11407.94724027   -11707.97150250
  entropy T*S    EENTRO =        -0.00148252
  eigenvalues    EBANDS =       543.89324481
  atomic energy  EATOM  =     11229.46195210
  Solvation  Ediel_sol  =         0.00000000
  ---------------------------------------------------
  free energy    TOTEN  =      -108.88913851 eV

  energy without entropy =     -108.88765599  energy(sigma->0) =     -108.88839725


--------------------------------------------------------------------------------------------------------




--------------------------------------- Iteration      1(   8)  ---------------------------------------


    POTLOK:  cpu time    0.1080: real time    0.1146
    SETDIJ:  cpu time    0.0364: real time    0.0364
    EDDIAG:  cpu time    5.9105: real time    5.9187
  RMM-DIIS:  cpu time   23.1317: real time   23.1742
    ORTHCH:  cpu time    1.0783: real time    1.0798
       DOS:  cpu time    0.0063: real time    0.0063
    CHARGE:  cpu time    1.0723: real time    1.0745
    MIXING:  cpu time    0.0027: real time    0.0027
    --------------------------------------------
      LOOP:  cpu time   31.3463: real time   31.4071

 eigenvalue-minimisations  : 21529
 total energy-change (2. order) : 0.4271881E+01  (-0.2140418E+01)
 number of electron     127.9999771 magnetization       0.3543328
 augmentation part       66.8691697 magnetization       0.1188988

 Broyden mixing:
  rms(total) = 0.18169E+01    rms(broyden)= 0.18168E+01
  rms(prec ) = 0.31678E+01
  weight for this iteration     100.00

 eigenvalues of (default mixing * dielectric matrix)
  average eigenvalue GAMMA=   0.5238
  0.6746  0.6746  0.2223

 Free energy of the ion-electron system (eV)
  ---------------------------------------------------
  alpha Z        PSCENC =       529.91275261
  Ewald energy   TEWEN  =     -9192.31517919
  -Hartree energ DENC   =     -3052.90366321
  -exchange      EXHF   =         0.00000000
  -V(xc)+E(xc)   XCENC  =        72.55490676
  PAW double counting   =     11806.47500641   -12134.64723773
  entropy T*S    EENTRO =        -0.00396548
  eigenvalues    EBANDS =       636.84816975
  atomic energy  EATOM  =     11229.46195210
  Solvation  Ediel_sol  =         0.00000000
  ---------------------------------------------------
  free energy    TOTEN  =      -104.61725799 eV

  energy without entropy =     -104.61329251  energy(sigma->0) =     -104.61527525


--------------------------------------------------------------------------------------------------------




--------------------------------------- Iteration      1(   9)  ---------------------------------------


    POTLOK:  cpu time    0.1068: real time    0.1071
    SETDIJ:  cpu time    0.0364: real time    0.0365
    EDDIAG:  cpu time    5.9300: real time    5.9405
  RMM-DIIS:  cpu time   23.1980: real time   23.2445
    ORTHCH:  cpu time    1.0803: real time    1.0818
       DOS:  cpu time    0.0059: real time    0.0059
    CHARGE:  cpu time    1.0861: real time    1.0873
    MIXING:  cpu time    0.0027: real time    0.0028
    --------------------------------------------
      LOOP:  cpu time   31.4462: real time   31.5064

 eigenvalue-minimisations  : 21556
 total energy-change (2. order) : 0.1044282E+01  (-0.2458365E+00)
 number of electron     127.9999715 magnetization       0.3033592
 augmentation part       67.6174113 magnetization       0.3153615

 Broyden mixing:
  rms(total) = 0.10513E+01    rms(broyden)= 0.10512E+01
  rms(prec ) = 0.17430E+01
  weight for this iteration     100.00

 eigenvalues of (default mixing * dielectric matrix)
  average eigenvalue GAMMA=   0.6106
  1.2117  0.5941  0.4488  0.1878

 Free energy of the ion-electron system (eV)
  ---------------------------------------------------
  alpha Z        PSCENC =       529.91275261
  Ewald energy   TEWEN  =     -9192.31517919
  -Hartree energ DENC   =     -3039.80001280
  -exchange      EXHF   =         0.00000000
  -V(xc)+E(xc)   XCENC  =        73.07562716
  PAW double counting   =     12090.19358967   -12422.46056313
  entropy T*S    EENTRO =        -0.00201247
  eigenvalues    EBANDS =       628.36087049
  atomic energy  EATOM  =     11229.46195210
  Solvation  Ediel_sol  =         0.00000000
  ---------------------------------------------------
  free energy    TOTEN  =      -103.57297558 eV

  energy without entropy =     -103.57096310  energy(sigma->0) =     -103.57196934


--------------------------------------------------------------------------------------------------------




--------------------------------------- Iteration      1(  10)  ---------------------------------------


    POTLOK:  cpu time    0.1110: real time    0.1150
    SETDIJ:  cpu time    0.0377: real time    0.0377
    EDDIAG:  cpu time    5.9701: real time    5.9767
  RMM-DIIS:  cpu time   23.2900: real time   23.3154
    ORTHCH:  cpu time    1.0777: real time    1.0787
       DOS:  cpu time    0.0061: real time    0.0061
    CHARGE:  cpu time    1.0906: real time    1.0914
    MIXING:  cpu time    0.0031: real time    0.0031
    --------------------------------------------
      LOOP:  cpu time   31.5862: real time   31.6241

 eigenvalue-minimisations  : 21510
 total energy-change (2. order) : 0.2707243E+00  (-0.1245683E+00)
 number of electron     127.9999711 magnetization       0.1510421
 augmentation part       67.9645463 magnetization       0.1361699

 Broyden mixing:
  rms(total) = 0.63997E+00    rms(broyden)= 0.63996E+00
  rms(prec ) = 0.10452E+01
  weight for this iteration     100.00

 eigenvalues of (default mixing * dielectric matrix)
  average eigenvalue GAMMA=   0.6666
  1.6328  0.7191  0.5415  0.2473  0.1923

 Free energy of the ion-electron system (eV)
  ---------------------------------------------------
  alpha Z        PSCENC =       529.91275261
  Ewald energy   TEWEN  =     -9192.31517919
  -Hartree energ DENC   =     -3030.96614985
  -exchange      EXHF   =         0.00000000
  -V(xc)+E(xc)   XCENC  =        73.67926366
  PAW double counting   =     12344.15125250   -12680.23816898
  entropy T*S    EENTRO =        -0.00165070
  eigenvalues    EBANDS =       623.01367658
  atomic energy  EATOM  =     11229.46195210
  Solvation  Ediel_sol  =         0.00000000
  ---------------------------------------------------
  free energy    TOTEN  =      -103.30225127 eV

  energy without entropy =     -103.30060057  energy(sigma->0) =     -103.30142592


--------------------------------------------------------------------------------------------------------




--------------------------------------- Iteration      1(  11)  ---------------------------------------


    POTLOK:  cpu time    0.1067: real time    0.1068
    SETDIJ:  cpu time    0.0362: real time    0.0362
    EDDIAG:  cpu time    5.9995: real time    6.0051
  RMM-DIIS:  cpu time   23.6683: real time   23.6885
    ORTHCH:  cpu time    1.0907: real time    1.0917
       DOS:  cpu time    0.0062: real time    0.0063
    CHARGE:  cpu time    1.0964: real time    1.0973
    MIXING:  cpu time    0.0032: real time    0.0032
    --------------------------------------------
      LOOP:  cpu time   32.0072: real time   32.0350

 eigenvalue-minimisations  : 21744
 total energy-change (2. order) : 0.1934993E+00  (-0.3915849E-01)
 number of electron     127.9999723 magnetization       0.1087944
 augmentation part       67.6033016 magnetization       0.1187144

 Broyden mixing:
  rms(total) = 0.28018E+00    rms(broyden)= 0.28017E+00
  rms(prec ) = 0.39177E+00
  weight for this iteration     100.00

 eigenvalues of (default mixing * dielectric matrix)
  average eigenvalue GAMMA=   0.6663
  1.7928  0.6297  0.5642  0.5642  0.1918  0.2549

 Free energy of the ion-electron system (eV)
  ---------------------------------------------------
  alpha Z        PSCENC =       529.91275261
  Ewald energy   TEWEN  =     -9192.31517919
  -Hartree energ DENC   =     -3032.84139497
  -exchange      EXHF   =         0.00000000
  -V(xc)+E(xc)   XCENC  =        74.97771771
  PAW double counting   =     12626.54528715   -12968.66906102
  entropy T*S    EENTRO =        -0.00157583
  eigenvalues    EBANDS =       629.82074948
  atomic energy  EATOM  =     11229.46195210
  Solvation  Ediel_sol  =         0.00000000
  ---------------------------------------------------
  free energy    TOTEN  =      -103.10875197 eV

  energy without entropy =     -103.10717613  energy(sigma->0) =     -103.10796405


--------------------------------------------------------------------------------------------------------




--------------------------------------- Iteration      1(  12)  ---------------------------------------


    POTLOK:  cpu time    0.1109: real time    0.1116
    SETDIJ:  cpu time    0.0378: real time    0.0378
    EDDIAG:  cpu time    6.0449: real time    6.0507
  RMM-DIIS:  cpu time   23.7630: real time   23.7833
    ORTHCH:  cpu time    1.0898: real time    1.0909
       DOS:  cpu time    0.0059: real time    0.0059
    CHARGE:  cpu time    1.1105: real time    1.1114
    MIXING:  cpu time    0.0033: real time    0.0033
    --------------------------------------------
      LOOP:  cpu time   32.1660: real time   32.1949

 eigenvalue-minimisations  : 21818
 total energy-change (2. order) : 0.9654527E-02  (-0.9189935E-02)
 number of electron     127.9999723 magnetization       0.0118877
 augmentation part       67.6603556 magnetization      -0.0245551

 Broyden mixing:
  rms(total) = 0.19624E+00    rms(broyden)= 0.19624E+00
  rms(prec ) = 0.27603E+00
  weight for this iteration     100.00

 eigenvalues of (default mixing * dielectric matrix)
  average eigenvalue GAMMA=   0.7418
  2.2103  0.8632  0.8632  0.5556  0.1915  0.2542  0.2542

 Free energy of the ion-electron system (eV)
  ---------------------------------------------------
  alpha Z        PSCENC =       529.91275261
  Ewald energy   TEWEN  =     -9192.31517919
  -Hartree energ DENC   =     -3030.81368612
  -exchange      EXHF   =         0.00000000
  -V(xc)+E(xc)   XCENC  =        75.08471725
  PAW double counting   =     12694.97756080   -13037.86093837
  entropy T*S    EENTRO =        -0.00116573
  eigenvalues    EBANDS =       628.45488923
  atomic energy  EATOM  =     11229.46195210
  Solvation  Ediel_sol  =         0.00000000
  ---------------------------------------------------
  free energy    TOTEN  =      -103.09909744 eV

  energy without entropy =     -103.09793170  energy(sigma->0) =     -103.09851457


--------------------------------------------------------------------------------------------------------




--------------------------------------- Iteration      1(  13)  ---------------------------------------


    POTLOK:  cpu time    0.1072: real time    0.1073
    SETDIJ:  cpu time    0.0362: real time    0.0363
    EDDIAG:  cpu time    6.0634: real time    6.0692
  RMM-DIIS:  cpu time   25.1882: real time   25.2144
    ORTHCH:  cpu time    1.0869: real time    1.0879
       DOS:  cpu time    0.0059: real time    0.0059
    CHARGE:  cpu time    1.0896: real time    1.0906
    MIXING:  cpu time    0.0036: real time    0.0036
    --------------------------------------------
      LOOP:  cpu time   33.5809: real time   33.6151

 eigenvalue-minimisations  : 22768
 total energy-change (2. order) : 0.8869513E-03  (-0.5480987E-02)
 number of electron     127.9999723 magnetization      -0.0104031
 augmentation part       67.7368864 magnetization      -0.0012537

 Broyden mixing:
  rms(total) = 0.11582E+00    rms(broyden)= 0.11581E+00
  rms(prec ) = 0.17010E+00
  weight for this iteration     100.00

 eigenvalues of (default mixing * dielectric matrix)
  average eigenvalue GAMMA=   0.7291
  2.3013  0.9522  0.8139  0.5435  0.5044  0.1921  0.2856  0.2399

 Free energy of the ion-electron system (eV)
  ---------------------------------------------------
  alpha Z        PSCENC =       529.91275261
  Ewald energy   TEWEN  =     -9192.31517919
  -Hartree energ DENC   =     -3027.46995800
  -exchange      EXHF   =         0.00000000
  -V(xc)+E(xc)   XCENC  =        75.28746837
  PAW double counting   =     12815.89918726   -13160.10212186
  entropy T*S    EENTRO =        -0.00130471
  eigenvalues    EBANDS =       626.22899294
  atomic energy  EATOM  =     11229.46195210
  Solvation  Ediel_sol  =         0.00000000
  ---------------------------------------------------
  free energy    TOTEN  =      -103.09821049 eV

  energy without entropy =     -103.09690578  energy(sigma->0) =     -103.09755813


--------------------------------------------------------------------------------------------------------




--------------------------------------- Iteration      1(  14)  ---------------------------------------


    POTLOK:  cpu time    0.1229: real time    0.1237
    SETDIJ:  cpu time    0.0376: real time    0.0376
    EDDIAG:  cpu time    6.0928: real time    6.0983
  RMM-DIIS:  cpu time   24.0939: real time   24.1140
    ORTHCH:  cpu time    1.0898: real time    1.0908
       DOS:  cpu time    0.0061: real time    0.0061
    CHARGE:  cpu time    1.1081: real time    1.1089
    MIXING:  cpu time    0.0037: real time    0.0037
    --------------------------------------------
      LOOP:  cpu time   32.5549: real time   32.5833

 eigenvalue-minimisations  : 22023
 total energy-change (2. order) : 0.3481785E-02  (-0.2425151E-02)
 number of electron     127.9999724 magnetization      -0.0080047
 augmentation part       67.7156976 magnetization      -0.0177598

 Broyden mixing:
  rms(total) = 0.76887E-01    rms(broyden)= 0.76885E-01
  rms(prec ) = 0.10314E+00
  weight for this iteration     100.00

 eigenvalues of (default mixing * dielectric matrix)
  average eigenvalue GAMMA=   0.7458
  2.3897  1.1577  0.7935  0.7935  0.5673  0.1918  0.3132  0.2645  0.2407

 Free energy of the ion-electron system (eV)
  ---------------------------------------------------
  alpha Z        PSCENC =       529.91275261
  Ewald energy   TEWEN  =     -9192.31517919
  -Hartree energ DENC   =     -3027.31755490
  -exchange      EXHF   =         0.00000000
  -V(xc)+E(xc)   XCENC  =        75.36958514
  PAW double counting   =     12850.94660407   -13195.59455787
  entropy T*S    EENTRO =        -0.00154074
  eigenvalues    EBANDS =       626.44321009
  atomic energy  EATOM  =     11229.46195210
  Solvation  Ediel_sol  =         0.00000000
  ---------------------------------------------------
  free energy    TOTEN  =      -103.09472870 eV

  energy without entropy =     -103.09318796  energy(sigma->0) =     -103.09395833


--------------------------------------------------------------------------------------------------------




--------------------------------------- Iteration      1(  15)  ---------------------------------------


    POTLOK:  cpu time    0.1077: real time    0.1078
    SETDIJ:  cpu time    0.0364: real time    0.0365
    EDDIAG:  cpu time    6.1080: real time    6.1138
  RMM-DIIS:  cpu time   24.9869: real time   25.0076
    ORTHCH:  cpu time    1.0909: real time    1.0920
       DOS:  cpu time    0.0071: real time    0.0072
    CHARGE:  cpu time    1.0985: real time    1.0993
    MIXING:  cpu time    0.0053: real time    0.0053
    --------------------------------------------
      LOOP:  cpu time   33.4409: real time   33.4694

 eigenvalue-minimisations  : 22591
 total energy-change (2. order) : 0.1355033E-02  (-0.5454061E-03)
 number of electron     127.9999724 magnetization       0.0043470
 augmentation part       67.7187610 magnetization       0.0041004

 Broyden mixing:
  rms(total) = 0.29827E-01    rms(broyden)= 0.29826E-01
  rms(prec ) = 0.32689E-01
  weight for this iteration     100.00

 eigenvalues of (default mixing * dielectric matrix)
  average eigenvalue GAMMA=   0.8056
  2.0968  1.8525  0.9874  0.8651  0.6801  0.5404  0.3390  0.1919  0.2611  0.2416

 Free energy of the ion-electron system (eV)
  ---------------------------------------------------
  alpha Z        PSCENC =       529.91275261
  Ewald energy   TEWEN  =     -9192.31517919
  -Hartree energ DENC   =     -3027.43810174
  -exchange      EXHF   =         0.00000000
  -V(xc)+E(xc)   XCENC  =        75.33832227
  PAW double counting   =     12857.52805546   -13202.07473263
  entropy T*S    EENTRO =        -0.00155011
  eigenvalues    EBANDS =       626.49510757
  atomic energy  EATOM  =     11229.46195210
  Solvation  Ediel_sol  =         0.00000000
  ---------------------------------------------------
  free energy    TOTEN  =      -103.09337367 eV

  energy without entropy =     -103.09182356  energy(sigma->0) =     -103.09259862


--------------------------------------------------------------------------------------------------------




--------------------------------------- Iteration      1(  16)  ---------------------------------------


    POTLOK:  cpu time    0.1147: real time    0.1154
    SETDIJ:  cpu time    0.0381: real time    0.0381
    EDDIAG:  cpu time    6.2021: real time    6.2077
  RMM-DIIS:  cpu time   26.7725: real time   26.8077
    ORTHCH:  cpu time    1.1116: real time    1.1127
       DOS:  cpu time    0.0071: real time    0.0072
    CHARGE:  cpu time    1.1041: real time    1.1050
    MIXING:  cpu time    0.0042: real time    0.0042
    --------------------------------------------
[...]
         0         1         2         3         4         5         6         7         8         9
 total charge-density along one line

 pseudopotential strength for first ion, spin component:           1
 -1.640  -0.006  -0.020  -0.012  -0.003  -2.276  -0.006  -0.019
 -0.006  -1.634  -0.001  -0.007   0.001  -0.006  -2.270  -0.001
 -0.020  -0.001  -1.615   0.013  -0.001  -0.019  -0.001  -2.251
 -0.012  -0.007   0.013  -1.638   0.019  -0.011  -0.007   0.013
 -0.003   0.001  -0.001   0.019  -1.633  -0.003   0.001  -0.001
 -2.276  -0.006  -0.019  -0.011  -0.003  -2.842  -0.006  -0.018
 -0.006  -2.270  -0.001  -0.007   0.001  -0.006  -2.836  -0.001
 -0.019  -0.001  -2.251   0.013  -0.001  -0.018  -0.001  -2.818
 -0.011  -0.007   0.013  -2.274   0.018  -0.011  -0.006   0.012
 -0.003   0.001  -0.001   0.018  -2.269  -0.003   0.001  -0.001
 -0.003  -0.001  -0.002  -0.004  -0.000  -0.003  -0.000  -0.002
 -0.006  -0.001  -0.004  -0.008  -0.001  -0.006  -0.001  -0.004
 -0.002  -0.003   0.006  -0.001   0.010  -0.002  -0.003   0.005
 -0.001  -0.011  -0.010  -0.002   0.000  -0.001  -0.011  -0.009
 -0.011  -0.001   0.000  -0.003  -0.001  -0.010  -0.001   0.000
 -0.003  -0.002   0.006  -0.001   0.011  -0.003  -0.002   0.006
 -0.001  -0.013  -0.010  -0.003   0.000  -0.001  -0.012  -0.009
 -0.013  -0.001   0.001  -0.002  -0.001  -0.012  -0.001   0.001
 pseudopotential strength for first ion, spin component:           2
 -1.638   0.007   0.024  -0.012   0.002  -2.274   0.007   0.022
  0.007  -1.634  -0.000   0.006   0.002   0.007  -2.270  -0.000
  0.024  -0.000  -1.630  -0.013   0.007   0.022  -0.000  -2.265
 -0.012   0.006  -0.013  -1.640  -0.016  -0.011   0.006  -0.012
  0.002   0.002   0.007  -0.016  -1.618   0.002   0.002   0.007
 -2.274   0.007   0.022  -0.011   0.002  -2.841   0.006   0.021
  0.007  -2.270  -0.000   0.006   0.002   0.006  -2.836  -0.001
  0.022  -0.000  -2.265  -0.012   0.007   0.021  -0.001  -2.832
 -0.011   0.006  -0.012  -2.276  -0.015  -0.011   0.006  -0.012
  0.002   0.002   0.007  -0.015  -2.255   0.002   0.002   0.007
  0.004  -0.001   0.002   0.003   0.002   0.004  -0.000   0.002
  0.008  -0.001   0.003   0.006   0.004   0.007  -0.001   0.003
  0.002  -0.011   0.005   0.001   0.009   0.002  -0.011   0.005
  0.001  -0.003  -0.012   0.002   0.000   0.001  -0.003  -0.011
 -0.003   0.001  -0.001  -0.011   0.001  -0.003   0.001  -0.001
  0.003  -0.013   0.005   0.001   0.008   0.003  -0.012   0.005
  0.001  -0.002  -0.012   0.003   0.000   0.001  -0.002  -0.012
 -0.002   0.001  -0.001  -0.013   0.001  -0.002   0.001  -0.001
 total augmentation occupancy for first ion, spin component:           1
  2.001  -0.015   0.014  -0.019  -0.016  -0.526   0.009  -0.008  -0.026   0.010   0.010  -0.001   0.011   0.005   0.036  -0.001
 -0.015   2.022   0.021   0.015  -0.036   0.009  -0.540  -0.011  -0.009   0.019  -0.110   0.033   0.027   0.027  -0.000  -0.011
  0.014   0.021   2.776  -0.007   0.005  -0.008  -0.011  -1.061   0.004  -0.005  -0.007   0.002   0.033  -0.068   0.005   0.002
 -0.019   0.015  -0.007   2.001   0.020  -0.026  -0.009   0.004  -0.526  -0.012  -0.010   0.001  -0.005  -0.011   0.036   0.000
 -0.016  -0.036   0.005   0.020   2.770   0.010   0.019  -0.005  -0.012  -1.055   0.012  -0.003   0.060   0.001   0.003   0.005
 -0.526   0.009  -0.008  -0.026   0.010   0.831  -0.004   0.006   0.054  -0.006  -0.006   0.001  -0.006  -0.003  -0.005   0.000
  0.009  -0.540  -0.011  -0.009   0.019  -0.004   0.840   0.011   0.004  -0.019   0.068  -0.020   0.001   0.001   0.000   0.001
 -0.008  -0.011  -1.061   0.004  -0.005   0.006   0.011   1.113  -0.002   0.008   0.007  -0.002  -0.030   0.062  -0.003   0.003
 -0.026  -0.009   0.004  -0.526  -0.012   0.054   0.004  -0.002   0.831   0.008   0.006  -0.001   0.003   0.006  -0.005  -0.000
  0.010   0.019  -0.005  -0.012  -1.055  -0.006  -0.019   0.008   0.008   1.103  -0.013   0.003  -0.054  -0.000  -0.002   0.006
  0.010  -0.110  -0.007  -0.010   0.012  -0.006   0.068   0.007   0.006  -0.013   2.119  -0.278   0.053   0.053   0.000  -0.006
 -0.001   0.033   0.002   0.001  -0.003   0.001  -0.020  -0.002  -0.001   0.003  -0.278   0.047   0.001   0.001  -0.000  -0.000
  0.011   0.027   0.033  -0.005   0.060  -0.006   0.001  -0.030   0.003  -0.054   0.053   0.001   0.256   0.000   0.001  -0.027
  0.005   0.027  -0.068  -0.011   0.001  -0.003   0.001   0.062   0.006  -0.000   0.053   0.001   0.000   0.256  -0.001  -0.002
  0.036  -0.000   0.005   0.036   0.003  -0.005   0.000  -0.003  -0.005  -0.002   0.000  -0.000   0.001  -0.001   0.256   0.000
 -0.001  -0.011   0.002   0.000   0.005   0.000   0.001   0.003  -0.000   0.006  -0.006  -0.000  -0.027  -0.002   0.000   0.003
 -0.000  -0.011  -0.005   0.001   0.000   0.000   0.001  -0.007  -0.000  -0.000  -0.006  -0.000  -0.002  -0.027  -0.000   0.000
 -0.011  -0.000   0.000  -0.011   0.000   0.001   0.000  -0.000   0.001  -0.000  -0.000   0.000   0.000  -0.000  -0.026  -0.000
 total augmentation occupancy for first ion, spin component:           2
  0.056  -0.071   0.214  -0.000  -0.003  -0.045   0.079  -0.121  -0.000   0.009   0.077   0.001   0.040   0.037   0.075  -0.002
 -0.071  -0.000   0.085  -0.071   0.049   0.079   0.000  -0.072   0.079  -0.041   0.000  -0.000  -0.077   0.077   0.042   0.003
  0.214   0.085  -0.060  -0.104   0.035  -0.122  -0.072   0.032   0.052  -0.018   0.047   0.005   0.018   0.038   0.004  -0.000
 -0.000  -0.071  -0.104  -0.057  -0.187   0.000   0.079   0.052   0.046   0.110   0.077   0.001   0.037   0.040  -0.075  -0.002
 -0.003   0.049   0.035  -0.187   0.060   0.010  -0.041  -0.018   0.110  -0.032   0.027   0.003   0.033  -0.001  -0.007   0.000
 -0.045   0.079  -0.122   0.000   0.010   0.034  -0.075   0.059  -0.000  -0.012  -0.051   0.007  -0.026  -0.030  -0.046   0.003
  0.079   0.000  -0.072   0.079  -0.041  -0.075  -0.000   0.058  -0.075   0.033  -0.000   0.000   0.047  -0.047  -0.033  -0.005
 -0.121  -0.072   0.032   0.052  -0.018   0.059   0.058  -0.013  -0.019   0.008  -0.031   0.001  -0.017  -0.036  -0.006   0.001
 -0.000   0.079   0.052   0.046   0.110  -0.000  -0.075  -0.019  -0.034  -0.057  -0.051   0.007  -0.030  -0.026   0.046   0.003
  0.009  -0.041  -0.018   0.110  -0.032  -0.012   0.033   0.008  -0.057   0.013  -0.018   0.000  -0.031   0.001   0.010   0.001
  0.077   0.000   0.047   0.077   0.027  -0.051  -0.000  -0.031  -0.051  -0.018   0.000  -0.000   0.011  -0.011  -0.002   0.002
  0.001  -0.000   0.005   0.001   0.003   0.007   0.000   0.001   0.007   0.000  -0.000   0.000   0.004  -0.004   0.003  -0.001
  0.040  -0.077   0.018   0.037   0.033  -0.026   0.047  -0.017  -0.030  -0.031   0.011   0.004   0.008  -0.000  -0.008  -0.000
  0.037   0.077   0.038   0.040  -0.001  -0.030  -0.047  -0.036  -0.026   0.001  -0.011  -0.004  -0.000  -0.008  -0.008  -0.000
  0.075   0.042   0.004  -0.075  -0.007  -0.046  -0.033  -0.006   0.046   0.010  -0.002   0.003  -0.008  -0.008   0.000   0.001
 -0.002   0.003  -0.000  -0.002   0.000   0.003  -0.005   0.001   0.003   0.001   0.002  -0.001  -0.000  -0.000   0.001   0.000
 -0.002  -0.003  -0.000  -0.002  -0.000   0.003   0.005   0.001   0.003   0.000  -0.002   0.001   0.000   0.000   0.001  -0.000
 -0.003  -0.001   0.000   0.003  -0.000   0.005   0.003  -0.000  -0.005   0.000   0.002  -0.000   0.001   0.001  -0.000  -0.000


------------------------ aborting loop because EDIFF is reached ----------------------------------------





 total charge     

# of ion       s       p       d       tot
------------------------------------------
    1        0.475   0.421   8.368   9.264
    2        0.475   0.421   8.368   9.264
    3        0.474   0.423   8.380   9.277
    4        0.474   0.425   8.397   9.296
    5        0.474   0.425   8.397   9.296
    6        0.474   0.423   8.380   9.277
    7        0.475   0.421   8.368   9.264
    8        0.475   0.421   8.368   9.264
    9        0.325   0.309   4.940   5.574
   10        0.326   0.311   4.933   5.571
   11        0.325   0.309   4.940   5.574
   12        0.326   0.311   4.934   5.571
   13        0.357   0.367   4.946   5.670
   14        0.357   0.367   4.946   5.670
   15        1.241   1.667   0.287   3.195
   16        1.241   1.667   0.287   3.195
--------------------------------------------------
tot          8.296   8.690  97.237 114.223



 magnetization (x)

# of ion       s       p       d       tot
------------------------------------------
    1        0.001   0.002   0.001   0.004
    2       -0.001  -0.002  -0.001  -0.004
    3       -0.000  -0.000  -0.000  -0.000
    4       -0.000  -0.000  -0.000  -0.000
    5       -0.000  -0.000  -0.000  -0.000
    6       -0.000  -0.000  -0.000  -0.000
    7       -0.001  -0.002  -0.001  -0.004
    8        0.001   0.002   0.001   0.004
    9       -0.028  -0.012  -3.572  -3.612
   10       -0.032  -0.021  -3.566  -3.619
   11        0.028   0.012   3.572   3.613
   12        0.032   0.021   3.566   3.619
   13       -0.030  -0.039  -3.244  -3.313
   14        0.030   0.039   3.245   3.313
   15        0.012  -0.042   0.001  -0.029
   16       -0.012   0.042  -0.001   0.029
--------------------------------------------------
tot         -0.000  -0.000   0.000   0.000

    CHARGE:  cpu time    1.1571: real time    1.1581
    FORLOC:  cpu time    0.0071: real time    0.0071
    FORNL :  cpu time   10.3341: real time   10.3434
    STRESS:  cpu time   31.1031: real time   31.1283
    FORCOR:  cpu time    0.1141: real time    0.1142
    FORHAR:  cpu time    0.0173: real time    0.0173
    MIXING:  cpu time    0.0025: real time    0.0025
    OFIELD:  cpu time    0.0000: real time    0.0000

  FORCE on cell =-STRESS in cart. coord.  units (eV):
  Direction    XX          YY          ZZ          XY          YZ          ZX
  --------------------------------------------------------------------------------------
  Alpha Z   529.91275   529.91275   529.91275
  Ewald   -2820.38378 -3185.44527 -3185.47330     0.00000    -0.00000     0.00000
  Hartree  1241.91802   893.56376   893.51338    -0.00000    -0.00000    -0.00000
  E(xc)    -670.19546  -670.25701  -670.25703     0.00000    -0.00000     0.00000
  Local    -775.28355   -63.23512   -63.15583    -0.00000     0.00000     0.00000
  n-local  -148.56788  -147.71134  -147.71143    -0.15409     0.02506    -0.15972
  augment  1579.30093  1579.09830  1579.09838     0.00000    -0.00000    -0.00000
  Kinetic  1062.91328  1062.49482  1062.49482     0.88208     0.97401     0.88181
  Fock        0.00000     0.00000     0.00000     0.00000     0.00000     0.00000
  -------------------------------------------------------------------------------------
  Total      -0.38569    -1.57911    -1.57826     0.00000     0.00000     0.00000
  in kB      -2.91008   -11.91461   -11.90820     0.00000     0.00000     0.00000
  external pressure =       -8.91 kB  Pullay stress =        0.00 kB


 VOLUME and BASIS-vectors are now :
 -----------------------------------------------------------------------------
  energy-cutoff  :      550.00
  volume of cell :      212.35
      direct lattice vectors                 reciprocal lattice vectors
     5.965969040  0.000000000  0.000000000     0.167617363  0.000000000  0.000000000
     0.000000000  5.965969040  0.000000000     0.000000000  0.167617363  0.000000000
     0.000000000  0.000000000  5.965969040     0.000000000  0.000000000  0.167617363

  length of vectors
     5.965969040  5.965969040  5.965969040     0.167617363  0.167617363  0.167617363


 FORCES acting on ions
    electron-ion (+dipol)            ewald-force                    non-local-force                 convergence-correction
 -----------------------------------------------------------------------------------------------
   0.851E-01 0.158E+03 0.158E+03   -.872E-01 -.156E+03 -.156E+03   0.260E-03 -.236E+01 -.236E+01   0.165E-02 0.867E-02 0.222E-02
   -.851E-01 0.158E+03 0.158E+03   0.872E-01 -.156E+03 -.156E+03   -.260E-03 -.236E+01 -.236E+01   -.165E-02 0.867E-02 0.222E-02
   0.851E-01 -.158E+03 0.158E+03   -.872E-01 0.156E+03 -.156E+03   0.260E-03 0.236E+01 -.236E+01   0.165E-02 -.867E-02 0.222E-02
   -.851E-01 -.158E+03 0.158E+03   0.872E-01 0.156E+03 -.156E+03   -.260E-03 0.236E+01 -.236E+01   -.165E-02 -.867E-02 0.222E-02
   0.851E-01 0.158E+03 -.158E+03   -.872E-01 -.156E+03 0.156E+03   0.260E-03 -.236E+01 0.236E+01   0.165E-02 0.867E-02 -.222E-02
   -.851E-01 0.158E+03 -.158E+03   0.872E-01 -.156E+03 0.156E+03   -.260E-03 -.236E+01 0.236E+01   -.165E-02 0.867E-02 -.222E-02
   0.851E-01 -.158E+03 -.158E+03   -.872E-01 0.156E+03 0.156E+03   0.260E-03 0.236E+01 0.236E+01   0.165E-02 -.867E-02 -.222E-02
   -.851E-01 -.158E+03 -.158E+03   0.872E-01 0.156E+03 0.156E+03   -.260E-03 0.236E+01 0.236E+01   -.165E-02 -.867E-02 -.222E-02
   0.266E-12 0.151E-11 0.120E-11   -.363E-13 0.892E-15 -.204E-16   0.000E+00 0.000E+00 0.000E+00   0.154E-11 -.282E-12 -.101E-11
   -.792E-13 0.225E-12 -.979E-13   0.390E-13 0.365E-13 0.736E-17   0.000E+00 0.000E+00 0.000E+00   -.157E-11 -.278E-12 -.101E-11
   -.681E-13 -.202E-13 0.205E-12   -.542E-13 0.408E-13 0.124E-14   0.000E+00 0.000E+00 0.000E+00   0.138E-11 0.324E-12 0.145E-12
   0.252E-12 -.771E-14 0.263E-11   -.300E-13 0.266E-13 -.272E-13   0.000E+00 0.000E+00 0.000E+00   -.143E-11 0.317E-12 0.139E-12
   0.253E-12 0.361E-12 0.115E-11   -.111E-13 0.147E-13 -.831E-15   0.000E+00 0.000E+00 0.000E+00   -.213E-11 -.195E-12 -.297E-12
   -.857E-13 0.219E-12 0.188E-12   0.150E-12 0.100E-12 0.276E-13   0.000E+00 0.000E+00 0.000E+00   0.209E-11 -.195E-12 -.293E-12
   -.443E-13 -.551E-14 -.259E-13   -.685E-14 -.349E-13 0.697E-14   0.000E+00 0.000E+00 0.000E+00   -.438E-12 0.995E-13 -.308E-12
   0.253E-13 0.460E-13 0.528E-12   -.276E-13 0.184E-13 -.179E-13   0.000E+00 0.000E+00 0.000E+00   0.428E-12 0.996E-13 -.306E-12
 -----------------------------------------------------------------------------------------------
   0.360E-11 0.210E-10 -.920E-10   0.124E-14 -.244E-13 -.101E-13   0.000E+00 0.000E+00 -.222E-14   0.254E-11 0.154E-12 0.382E-10


 POSITION                                       TOTAL-FORCE (eV/Angst)
 -----------------------------------------------------------------------------------
      1.49159      1.58646      1.58647        -0.000228      0.001468      0.001471
      4.47438      1.58646      1.58647         0.000228      0.001468      0.001471
      1.49159      4.37950      1.58647        -0.000228     -0.001468      0.001471
      4.47438      4.37950      1.58647         0.000228     -0.001468      0.001471
      1.49159      1.58646      4.37950        -0.000228      0.001468     -0.001471
      4.47438      1.58646      4.37950         0.000228      0.001468     -0.001471
      1.49159      4.37950      4.37950        -0.000228     -0.001468     -0.001471
      4.47438      4.37950      4.37950         0.000228     -0.001468     -0.001471
      2.98298      2.98298      0.00000         0.000000      0.000000      0.000000
      0.00000      2.98298      0.00000         0.000000      0.000000      0.000000
      0.00000      0.00000      2.98298         0.000000      0.000000      0.000000
      2.98298      0.00000      2.98298         0.000000      0.000000      0.000000
      2.98298      2.98298      2.98298         0.000000      0.000000      0.000000
      0.00000      2.98298      2.98298         0.000000      0.000000      0.000000
      0.00000      0.00000      0.00000         0.000000      0.000000      0.000000
      2.98298      0.00000      0.00000         0.000000      0.000000      0.000000
 -----------------------------------------------------------------------------------
    total drift:                                0.000000      0.000000     -0.000000


--------------------------------------------------------------------------------------------------------



  FREE ENERGIE OF THE ION-ELECTRON SYSTEM (eV)
  ---------------------------------------------------
  free  energy   TOTEN  =      -103.09344151 eV

  energy  without entropy=     -103.09192975  energy(sigma->0) =     -103.09268563

 d Force = 0.3380348E-04[ 0.983E-05, 0.578E-04]  d Energy = 0.4318278E-04-0.938E-05
 d Force =-0.1040301E+01[-0.104E+01,-0.104E+01]  d Ewald  =-0.1040301E+01-0.370E-07


--------------------------------------------------------------------------------------------------------


    POTLOK:  cpu time    0.1436: real time    0.1437


--------------------------------------------------------------------------------------------------------


 Steepest descent step on ions:
 trial-energy change:   -0.000043  1 .order   -0.000034   -0.000058   -0.000010
  (g-gl).g = 0.578E-04      g.g   = 0.578E-04  gl.gl    = 0.000E+00
 g(Force)  = 0.578E-04   g(Stress)= 0.000E+00 ortho     = 0.000E+00
 gamma     =   0.00000
 trial     =   1.00000
 opt step  =   1.20493  (harmonic =   1.20493) maximal distance =0.00051129
 next E    =  -103.093433   (d E  =  -0.00003)


--------------------------------------------------------------------------------------------------------


  
 reached required accuracy - stopping structural energy minimisation
     LOOP+:  cpu time  190.4753: real time  190.8869
    4ORBIT:  cpu time    0.0000: real time    0.0000



 total charge     

# of ion       s       p       d       tot
------------------------------------------
    1        0.475   0.421   8.368   9.264
    2        0.475   0.421   8.368   9.264
    3        0.474   0.423   8.380   9.277
    4        0.474   0.425   8.397   9.296
    5        0.474   0.425   8.397   9.296
    6        0.474   0.423   8.380   9.277
    7        0.475   0.421   8.368   9.264
    8        0.475   0.421   8.368   9.264
    9        0.325   0.309   4.940   5.574
   10        0.326   0.311   4.933   5.571
   11        0.325   0.309   4.940   5.574
   12        0.326   0.311   4.934   5.571
   13        0.357   0.367   4.946   5.670
   14        0.357   0.367   4.946   5.670
   15        1.241   1.667   0.287   3.195
   16        1.241   1.667   0.287   3.195
--------------------------------------------------
tot          8.296   8.690  97.237 114.223



 magnetization (x)

# of ion       s       p       d       tot
------------------------------------------
    1        0.001   0.002   0.001   0.004
    2       -0.001  -0.002  -0.001  -0.004
    3       -0.000  -0.000  -0.000  -0.000
    4       -0.000  -0.000  -0.000  -0.000
    5       -0.000  -0.000  -0.000  -0.000
    6       -0.000  -0.000  -0.000  -0.000
    7       -0.001  -0.002  -0.001  -0.004
    8        0.001   0.002   0.001   0.004
    9       -0.028  -0.012  -3.572  -3.612
   10       -0.032  -0.021  -3.566  -3.619
   11        0.028   0.012   3.572   3.613
   12        0.032   0.021   3.566   3.619
   13       -0.030  -0.039  -3.244  -3.313
   14        0.030   0.039   3.245   3.313
   15        0.012  -0.042   0.001  -0.029
   16       -0.012   0.042  -0.001   0.029
--------------------------------------------------
tot         -0.000  -0.000   0.000   0.000


 total amount of memory used by VASP MPI-rank0   138732. kBytes
=======================================================================

   base      :      30000. kBytes
   nonlr-proj:       6808. kBytes
   fftplans  :       1269. kBytes
   grid      :       6573. kBytes
   one-center:        497. kBytes
   wavefun   :      93585. kBytes

  
  
 General timing and accounting informations for this job:
 ========================================================
  
                  Total CPU time used (sec):     1017.966
                            User time (sec):      955.603
                          System time (sec):       62.363
                         Elapsed time (sec):     1020.543
  
                   Maximum memory used (kb):      181556.
                   Average memory used (kb):           0.
  
                          Minor page faults:     22280121
                          Major page faults:            5
                 Voluntary context switches:         1774
