 vasp.5.4.4.18Apr17-6-g9f103f2a35 (build May 21 2018 20:56:50) complex           
 executed on             LinuxGNU date 2021.10.15  15:48:18
 running on   12 total cores
 distrk:  each k-point on   12 cores,    1 groups
 distr:  one band on NCORES_PER_BAND=   1 cores,   12 groups


--------------------------------------------------------------------------------------------------------


 INCAR:
 POTCAR:    PAW_PBE Ni 02Aug2007                  
 POTCAR:    PAW_PBE Mn 06Sep2000                  
 POTCAR:    PAW_PBE In 08Apr2002                  

 ----------------------------------------------------------------------------- 
|                                                                             |
|           W    W    AA    RRRRR   N    N  II  N    N   GGGG   !!!           |
|           W    W   A  A   R    R  NN   N  II  NN   N  G    G  !!!           |
|           W    W  A    A  R    R  N N  N  II  N N  N  G       !!!           |
|           W WW W  AAAAAA  RRRRR   N  N N  II  N  N N  G  GGG   !            |
|           WW  WW  A    A  R   R   N   NN  II  N   NN  G    G                |
|           W    W  A    A  R    R  N    N  II  N    N   GGGG   !!!           |
|                                                                             |
|      For optimal performance we recommend to set                            |
|        NCORE= 4 - approx SQRT( number of cores)                             |
|      NCORE specifies how many cores store one orbital (NPAR=cpu/NCORE).     |
|      This setting can  greatly improve the performance of VASP for DFT.     |
|      The default,   NCORE=1            might be grossly inefficient         |
|      on modern multi-core architectures or massively parallel machines.     |
|      Do your own testing !!!!                                               |
|      Unfortunately you need to use the default for GW and RPA calculations. |
|      (for HF NCORE is supported but not extensively tested yet)             |
|                                                                             |
 ----------------------------------------------------------------------------- 

 POTCAR:    PAW_PBE Ni 02Aug2007                  
   VRHFIN =Ni:                                                                  
   LEXCH  = PE                                                                  
   EATOM  =  1077.6739 eV,   79.2068 Ry                                         
                                                                                
   TITEL  = PAW_PBE Ni 02Aug2007                                                
   LULTRA =        F    use ultrasoft PP ?                                      
   IUNSCR =        1    unscreen: 0-lin 1-nonlin 2-no                           
   RPACOR =    2.000    partial core radius                                     
   POMASS =   58.690; ZVAL   =   10.000    mass and valenz                      
   RCORE  =    2.300    outmost cutoff radius                                   
   RWIGS  =    2.430; RWIGS  =    1.286    wigner-seitz radius (au A)           
   ENMAX  =  269.532; ENMIN  =  202.149 eV                                      
   RCLOC  =    1.201    cutoff for local pot                                    
   LCOR   =        T    correct aug charges                                     
   LPAW   =        T    paw PP                                                  
   EAUG   =  544.565                                                            
   DEXC   =    0.000                                                            
   RMAX   =    2.357    core radius for proj-oper                               
   RAUG   =    1.300    factor for augmentation sphere                          
   RDEP   =    2.390    radius for radial grids                                 
   RDEPT  =    1.838    core radius for aug-charge                              
                                                                                
   Atomic configuration                                                         
    9 entries                                                                   
     n  l   j            E        occ.                                          
     1  0  0.50     -8206.4253   2.0000                                         
     2  0  0.50      -976.1748   2.0000                                         
     2  1  1.50      -839.0571   6.0000                                         
     3  0  0.50      -105.9991   2.0000                                         
     3  1  1.50       -66.4603   6.0000                                         
     3  2  2.50        -4.6458   9.0000                                         
     4  0  0.50        -4.4926   1.0000                                         
     4  1  1.50        -4.0817   0.0000                                         
     4  3  2.50        -1.3606   0.0000                                         
   Description                                                                  
     l       E           TYP  RCUT    TYP  RCUT                                 
     2     -4.6457903     23  2.300                                             
     2     -6.0063729     23  2.300                                             
     0     -4.4925590     23  2.300                                             
     0      5.0102601     23  2.300                                             
     1     -2.7211652     23  2.300                                             
     1     16.5183231     23  2.300                                             
  local pseudopotential read in
  partial core-charges read in
  partial kinetic energy density read in
  atomic valenz-charges read in
  non local Contribution for L=           2  read in
    real space projection operators read in
  non local Contribution for L=           2  read in
    real space projection operators read in
  non local Contribution for L=           0  read in
    real space projection operators read in
  non local Contribution for L=           0  read in
    real space projection operators read in
  non local Contribution for L=           1  read in
    real space projection operators read in
  non local Contribution for L=           1  read in
    real space projection operators read in
    PAW grid and wavefunctions read in

   number of l-projection  operators is LMAX  =           6
   number of lm-projection operators is LMMAX =          18

 POTCAR:    PAW_PBE Mn 06Sep2000                  
   VRHFIN =Mn: d6 s1                                                            
   LEXCH  = PE                                                                  
   EATOM  =   416.7541 eV,   30.6306 Ry                                         
                                                                                
   TITEL  = PAW_PBE Mn 06Sep2000                                                
   LULTRA =        F    use ultrasoft PP ?                                      
   IUNSCR =        1    unscreen: 0-lin 1-nonlin 2-no                           
   RPACOR =    2.000    partial core radius                                     
   POMASS =   54.938; ZVAL   =    7.000    mass and valenz                      
   RCORE  =    2.300    outmost cutoff radius                                   
   RWIGS  =    2.500; RWIGS  =    1.323    wigner-seitz radius (au A)           
   ENMAX  =  269.864; ENMIN  =  202.398 eV                                      
   RCLOC  =    1.725    cutoff for local pot                                    
   LCOR   =        T    correct aug charges                                     
   LPAW   =        T    paw PP                                                  
   EAUG   =  500.711                                                            
   DEXC   =    0.000                                                            
   RMAX   =    2.343    core radius for proj-oper                               
   RAUG   =    1.300    factor for augmentation sphere                          
   RDEP   =    2.338    radius for radial grids                                 
   RDEPT  =    1.911    core radius for aug-charge                              
                                                                                
   Atomic configuration                                                         
    9 entries                                                                   
     n  l   j            E        occ.                                          
     1  0  0.50     -6424.8288   2.0000                                         
     2  0  0.50      -739.1154   2.0000                                         
     2  1  1.50      -625.3949   6.0000                                         
     3  0  0.50       -81.6100   2.0000                                         
     3  1  1.50       -50.4667   6.0000                                         
     3  2  2.50        -3.3745   6.0000                                         
     4  0  0.50        -4.1331   1.0000                                         
     4  1  0.50        -4.0817   0.0000                                         
     4  3  2.50        -1.3606   0.0000                                         
   Description                                                                  
     l       E           TYP  RCUT    TYP  RCUT                                 
     2     -3.3744664     23  2.300                                             
     2     -4.7350490     23  2.300                                             
     0     -4.1331408     23  2.300                                             
     0      7.6656614     23  2.300                                             
     1     -2.7211652     23  2.300                                             
     1     20.4087390     23  2.300                                             
  local pseudopotential read in
  partial core-charges read in
  partial kinetic energy density read in
  atomic valenz-charges read in
  non local Contribution for L=           2  read in
    real space projection operators read in
  non local Contribution for L=           2  read in
    real space projection operators read in
  non local Contribution for L=           0  read in
    real space projection operators read in
  non local Contribution for L=           0  read in
    real space projection operators read in
  non local Contribution for L=           1  read in
    real space projection operators read in
  non local Contribution for L=           1  read in
    real space projection operators read in
    PAW grid and wavefunctions read in

   number of l-projection  operators is LMAX  =           6
   number of lm-projection operators is LMMAX =          18

 POTCAR:    PAW_PBE In 08Apr2002                  
   VRHFIN =In: s2p1                                                             
   LEXCH  = PE                                                                  
   EATOM  =    53.7908 eV,    3.9535 Ry                                         
                                                                                
   TITEL  = PAW_PBE In 08Apr2002                                                
   LULTRA =        F    use ultrasoft PP ?                                      
   IUNSCR =        1    unscreen: 0-lin 1-nonlin 2-no                           
   RPACOR =    2.400    partial core radius                                     
   POMASS =  114.820; ZVAL   =    3.000    mass and valenz                      
   RCORE  =    3.100    outmost cutoff radius                                   
   RWIGS  =    3.170; RWIGS  =    1.677    wigner-seitz radius (au A)           
   ENMAX  =   95.934; ENMIN  =   71.951 eV                                      
   ICORE  =        3    local potential                                         
   LCOR   =        T    correct aug charges                                     
   LPAW   =        T    paw PP                                                  
   EAUG   =  237.125                                                            
   DEXC   =    0.000                                                            
   RMAX   =    3.168    core radius for proj-oper                               
   RAUG   =    1.300    factor for augmentation sphere                          
   RDEP   =    3.187    radius for radial grids                                 
   RDEPT  =    2.711    core radius for aug-charge                              
                                                                                
   Atomic configuration                                                         
   13 entries                                                                   
     n  l   j            E        occ.                                          
     1  0  0.50    -27747.9169   2.0000                                         
     2  0  0.50     -4154.4438   2.0000                                         
     2  1  1.50     -3728.4305   6.0000                                         
     3  0  0.50      -788.3680   2.0000                                         
     3  1  1.50      -648.9215   6.0000                                         
     3  2  2.50      -432.5893  10.0000                                         
     4  0  0.50      -119.6363   2.0000                                         
     4  1  1.50       -78.1086   6.0000                                         
     4  2  2.50       -18.6227  10.0000                                         
     5  0  0.50        -8.2107   2.0000                                         
     5  1  0.50        -2.5185   1.0000                                         
     5  2  2.50        -1.3606   0.0000                                         
     4  3  2.50        -2.7212   0.0000                                         
   Description                                                                  
     l       E           TYP  RCUT    TYP  RCUT                                 
     0     -8.2107306     23  3.100                                             
     0     -6.1485975     23  3.100                                             
     1     -2.5184867     23  3.100                                             
     1      3.2427302     23  3.100                                             
     2     -1.3605826     23  3.100                                             
     3     -1.3605826     23  3.100                                             
  local pseudopotential read in
  partial core-charges read in
  partial kinetic energy density read in
  atomic valenz-charges read in
  non local Contribution for L=           0  read in
    real space projection operators read in
  non local Contribution for L=           0  read in
    real space projection operators read in
  non local Contribution for L=           1  read in
    real space projection operators read in
  non local Contribution for L=           1  read in
    real space projection operators read in
  non local Contribution for L=           2  read in
    real space projection operators read in
    PAW grid and wavefunctions read in

   number of l-projection  operators is LMAX  =           5
   number of lm-projection operators is LMMAX =          13

 Optimization of the real space projectors (new method)

 maximal supplied QI-value         = 16.25
 optimisation between [QCUT,QGAM] = [ 11.86, 23.89] = [ 39.41,159.82] Ry 
 Optimized for a Real-space Cutoff    1.33 Angstroem

   l    n(q)    QCUT    max X(q) W(low)/X(q) W(high)/X(q)  e(spline) 
   2      9    11.864    60.317    0.21E-03    0.51E-03    0.25E-06
   2      9    11.864    55.921    0.21E-03    0.51E-03    0.26E-06
   0      9    11.864    51.690    0.22E-03    0.30E-04    0.17E-06
   0      9    11.864    30.015    0.20E-03    0.28E-04    0.15E-06
   1      9    11.864    18.849    0.76E-04    0.33E-03    0.17E-06
   1      9    11.864    14.624    0.60E-04    0.28E-03    0.15E-06
 Optimization of the real space projectors (new method)

 maximal supplied QI-value         = 16.25
 optimisation between [QCUT,QGAM] = [ 11.86, 23.89] = [ 39.41,159.82] Ry 
 Optimized for a Real-space Cutoff    1.36 Angstroem

   l    n(q)    QCUT    max X(q) W(low)/X(q) W(high)/X(q)  e(spline) 
   2      9    11.864   110.144    0.49E-03    0.50E-03    0.21E-06
   2      9    11.864   103.200    0.49E-03    0.51E-03    0.22E-06
   0     10    11.864    68.437    0.12E-03    0.41E-04    0.21E-06
   0     10    11.864    33.971    0.11E-03    0.36E-04    0.19E-06
   1      9    11.864    17.065    0.24E-03    0.26E-03    0.93E-07
   1      9    11.864    12.540    0.19E-03    0.20E-03    0.80E-07
 Optimization of the real space projectors (new method)

 maximal supplied QI-value         = 12.09
 optimisation between [QCUT,QGAM] = [ 11.97, 23.95] = [ 40.14,160.58] Ry 
 Optimized for a Real-space Cutoff    1.63 Angstroem

   l    n(q)    QCUT    max X(q) W(low)/X(q) W(high)/X(q)  e(spline) 
   0     12    11.973   106.980    0.33E-03    0.16E-03    0.25E-05
   0     12    11.973    81.086    0.37E-03    0.18E-03    0.28E-05
   1     11    11.973    53.097    0.22E-03    0.42E-03    0.40E-05
   1     11    11.973    32.621    0.20E-03    0.40E-03    0.37E-05
   2     11    11.973     8.820    0.30E-03    0.17E-03    0.41E-06
  PAW_PBE Ni 02Aug2007                  :
 energy of atom  1       EATOM=-1077.6739
 kinetic energy error for atom=    0.0027 (will be added to EATOM!!)
  PAW_PBE Mn 06Sep2000                  :
 energy of atom  2       EATOM= -416.7541
 kinetic energy error for atom=    0.0022 (will be added to EATOM!!)
  PAW_PBE In 08Apr2002                  :
 energy of atom  3       EATOM=  -53.7908
 kinetic energy error for atom=    0.0000 (will be added to EATOM!!)


 POSCAR: Ni2MnIn                                 
  positions in direct lattice
  velocities in cartesian coordinates
 exchange correlation table for  LEXCH =        8
   RHO(1)=    0.500       N(1)  =     2000
   RHO(2)=  100.500       N(2)  =     4000



--------------------------------------------------------------------------------------------------------


 ion  position               nearest neighbor table
   1  0.256  0.244  0.263-  12 2.49  11 2.53  13 2.53  14 2.57   9 2.58  15 2.62  16 2.62  10 2.66
                             5 2.82   3 2.90   2 2.90   3 3.04   2 3.04
   2  0.744  0.244  0.263-  12 2.49  11 2.53  13 2.53  14 2.57   9 2.58  15 2.62  16 2.62  10 2.66
                             6 2.82   4 2.90   1 2.90   4 3.04   1 3.04
   3  0.256  0.756  0.263-  12 2.49  11 2.53  13 2.53  14 2.57   9 2.58  15 2.62  16 2.62  10 2.66
                             7 2.82   4 2.90   1 2.90   1 3.04   4 3.04
   4  0.744  0.756  0.263-  12 2.49  11 2.53  13 2.53  14 2.57   9 2.58  15 2.62  16 2.62  10 2.66
                             8 2.82   3 2.90   2 2.90   3 3.04   2 3.04
   5  0.256  0.244  0.737-  12 2.49  11 2.53  13 2.53  14 2.57   9 2.58  15 2.62  16 2.62  10 2.66
                             1 2.82   6 2.90   7 2.90   7 3.04   6 3.04
   6  0.744  0.244  0.737-  12 2.49  11 2.53  13 2.53  14 2.57   9 2.58  15 2.62  16 2.62  10 2.66
                             2 2.82   5 2.90   8 2.90   8 3.04   5 3.04
   7  0.256  0.756  0.737-  12 2.49  11 2.53  13 2.53  14 2.57   9 2.58  15 2.62  16 2.62  10 2.66
                             3 2.82   5 2.90   8 2.90   5 3.04   8 3.04
   8  0.744  0.756  0.737-  12 2.49  11 2.53  13 2.53  14 2.57   9 2.58  15 2.62  16 2.62  10 2.66
                             4 2.82   6 2.90   7 2.90   7 3.04   6 3.04
   9  0.500  0.000  0.000-   1 2.58   2 2.58   3 2.58   4 2.58   5 2.58   6 2.58   7 2.58   8 2.58
                            12 2.97  15 2.97  16 2.97  12 2.97  16 2.97  15 2.97
  10  0.000  0.500  0.000-   1 2.66   2 2.66   3 2.66   4 2.66   5 2.66   6 2.66   7 2.66   8 2.66
                            14 2.97  15 2.97  16 2.97  14 2.97  15 2.97  16 2.97
  11  0.000  0.000  0.500-   1 2.53   2 2.53   3 2.53   4 2.53   5 2.53   6 2.53   7 2.53   8 2.53
                            12 2.97  14 2.97  15 2.97  15 2.97  14 2.97  12 2.97
  12  0.500  0.000  0.500-   1 2.49   2 2.49   3 2.49   4 2.49   5 2.49   6 2.49   7 2.49   8 2.49
                             9 2.97  11 2.97  13 2.97   9 2.97  13 2.97  11 2.97
  13  0.500  0.500  0.500-   1 2.53   2 2.53   3 2.53   4 2.53   5 2.53   6 2.53   7 2.53   8 2.53
                            12 2.97  14 2.97  16 2.97  16 2.97  12 2.97  14 2.97
  14  0.000  0.500  0.500-   1 2.57   2 2.57   3 2.57   4 2.57   5 2.57   6 2.57   7 2.57   8 2.57
                            10 2.97  11 2.97  13 2.97  10 2.97  11 2.97  13 2.97
  15  0.000  0.000  0.000-   1 2.62   2 2.62   3 2.62   4 2.62   5 2.62   6 2.62   7 2.62   8 2.62
                             9 2.97  10 2.97  11 2.97  11 2.97  10 2.97   9 2.97
  16  0.500  0.500  0.000-   1 2.62   2 2.62   3 2.62   4 2.62   5 2.62   6 2.62   7 2.62   8 2.62
                             9 2.97  10 2.97  13 2.97  13 2.97   9 2.97  10 2.97

  LATTYP: Found a simple cubic cell.
 ALAT       =     5.9485538443
  
  Lattice vectors:
  
 A1 = (   5.9485538443,   0.0000000000,   0.0000000000)
 A2 = (   0.0000000000,   5.9485538443,   0.0000000000)
 A3 = (   0.0000000000,   0.0000000000,   5.9485538443)


Analysis of symmetry for initial positions (statically):
=====================================================================
 Subroutine PRICEL returns:
 Original cell was already a primitive cell.
 

 Routine SETGRP: Setting up the symmetry group for a 
 simple cubic supercell.


 Subroutine GETGRP returns: Found 16 space group operations
 (whereof  8 operations were pure point group operations)
 out of a pool of 48 trial point group operations.


The static configuration has the point symmetry D_2h.
 The point group associated with its full space group is D_4h.


Analysis of symmetry for dynamics (positions and initial velocities):
=====================================================================
 Subroutine PRICEL returns:
 Original cell was already a primitive cell.
 

 Routine SETGRP: Setting up the symmetry group for a 
 simple cubic supercell.


 Subroutine GETGRP returns: Found 16 space group operations
 (whereof  8 operations were pure point group operations)
 out of a pool of 48 trial point group operations.


The dynamic configuration has the point symmetry D_2h.
 The point group associated with its full space group is D_4h.


Analysis of structural, dynamic, and magnetic symmetry:
=====================================================================
 Subroutine PRICEL returns:
 Original cell was already a primitive cell.
 

 Routine SETGRP: Setting up the symmetry group for a 
 simple cubic supercell.


 Subroutine GETGRP returns: Found 16 space group operations
 (whereof  8 operations were pure point group operations)
 out of a pool of 48 trial point group operations.


The magnetic configuration has the point symmetry D_2h.
 The point group associated with its full space group is D_4h.


 Subroutine INISYM returns: Found 16 space group operations
 (whereof  8 operations are pure point group operations),
 and found     1 'primitive' translations



 KPOINTS: k-points                                

Automatic generation of k-mesh.
Space group operators:
 irot       det(A)        alpha          n_x          n_y          n_z        tau_x        tau_y        tau_z
    1     1.000000     0.000000     1.000000     0.000000     0.000000     0.000000     0.000000     0.000000
    2    -1.000000     0.000000     1.000000     0.000000     0.000000     0.000000     0.000000     0.000000
    3     1.000000   180.000000     0.000000     0.000000     1.000000     0.000000     0.000000     0.000000
    4    -1.000000   180.000000     0.000000     0.000000     1.000000     0.000000     0.000000     0.000000
    5     1.000000   180.000000     1.000000     0.000000     0.000000     0.000000     0.000000     0.000000
    6    -1.000000   180.000000     1.000000     0.000000     0.000000     0.000000     0.000000     0.000000
    7     1.000000   180.000000     0.000000     1.000000     0.000000     0.000000     0.000000     0.000000
    8    -1.000000   180.000000     0.000000     1.000000     0.000000     0.000000     0.000000     0.000000
    9     1.000000    90.000000     0.000000     0.000000    -1.000000     0.500000     0.500000     0.000000
   10    -1.000000    90.000000     0.000000     0.000000    -1.000000     0.500000     0.500000     0.000000
   11     1.000000    90.000000     0.000000     0.000000     1.000000     0.500000     0.500000     0.000000
   12    -1.000000    90.000000     0.000000     0.000000     1.000000     0.500000     0.500000     0.000000
   13     1.000000   180.000000     0.707107     0.707107     0.000000     0.500000     0.500000     0.000000
   14    -1.000000   180.000000     0.707107     0.707107     0.000000     0.500000     0.500000     0.000000
   15     1.000000   180.000000     0.707107    -0.707107     0.000000     0.500000     0.500000     0.000000
   16    -1.000000   180.000000     0.707107    -0.707107     0.000000     0.500000     0.500000     0.000000
 
 Subroutine IBZKPT returns following result:
 ===========================================
 
 Found     40 irreducible k-points:
 
 Following reciprocal coordinates:
            Coordinates               Weight
  0.000000  0.000000  0.000000      1.000000
  0.142857  0.000000  0.000000      4.000000
  0.285714  0.000000  0.000000      4.000000
  0.428571  0.000000  0.000000      4.000000
  0.142857  0.142857  0.000000      4.000000
  0.285714  0.142857  0.000000      8.000000
  0.428571  0.142857  0.000000      8.000000
  0.285714  0.285714  0.000000      4.000000
  0.428571  0.285714  0.000000      8.000000
  0.428571  0.428571  0.000000      4.000000
  0.000000  0.000000  0.142857      2.000000
  0.142857  0.000000  0.142857      8.000000
  0.285714  0.000000  0.142857      8.000000
  0.428571  0.000000  0.142857      8.000000
  0.142857  0.142857  0.142857      8.000000
  0.285714  0.142857  0.142857     16.000000
  0.428571  0.142857  0.142857     16.000000
  0.285714  0.285714  0.142857      8.000000
  0.428571  0.285714  0.142857     16.000000
  0.428571  0.428571  0.142857      8.000000
  0.000000  0.000000  0.285714      2.000000
  0.142857  0.000000  0.285714      8.000000
  0.285714  0.000000  0.285714      8.000000
  0.428571  0.000000  0.285714      8.000000
  0.142857  0.142857  0.285714      8.000000
  0.285714  0.142857  0.285714     16.000000
  0.428571  0.142857  0.285714     16.000000
  0.285714  0.285714  0.285714      8.000000
  0.428571  0.285714  0.285714     16.000000
  0.428571  0.428571  0.285714      8.000000
  0.000000  0.000000  0.428571      2.000000
  0.142857  0.000000  0.428571      8.000000
  0.285714  0.000000  0.428571      8.000000
  0.428571  0.000000  0.428571      8.000000
  0.142857  0.142857  0.428571      8.000000
  0.285714  0.142857  0.428571     16.000000
  0.428571  0.142857  0.428571     16.000000
  0.285714  0.285714  0.428571      8.000000
  0.428571  0.285714  0.428571     16.000000
  0.428571  0.428571  0.428571      8.000000
 
 Following cartesian coordinates:
            Coordinates               Weight
  0.000000  0.000000  0.000000      1.000000
  0.138329  0.000000  0.000000      4.000000
  0.276658  0.000000  0.000000      4.000000
  0.414987  0.000000  0.000000      4.000000
  0.138329  0.138329  0.000000      4.000000
  0.276658  0.138329  0.000000      8.000000
  0.414987  0.138329  0.000000      8.000000
  0.276658  0.276658  0.000000      4.000000
  0.414987  0.276658  0.000000      8.000000
  0.414987  0.414987  0.000000      4.000000
  0.000000  0.000000  0.138329      2.000000
  0.138329  0.000000  0.138329      8.000000
  0.276658  0.000000  0.138329      8.000000
  0.414987  0.000000  0.138329      8.000000
  0.138329  0.138329  0.138329      8.000000
  0.276658  0.138329  0.138329     16.000000
  0.414987  0.138329  0.138329     16.000000
  0.276658  0.276658  0.138329      8.000000
  0.414987  0.276658  0.138329     16.000000
  0.414987  0.414987  0.138329      8.000000
  0.000000  0.000000  0.276658      2.000000
  0.138329  0.000000  0.276658      8.000000
  0.276658  0.000000  0.276658      8.000000
  0.414987  0.000000  0.276658      8.000000
  0.138329  0.138329  0.276658      8.000000
  0.276658  0.138329  0.276658     16.000000
  0.414987  0.138329  0.276658     16.000000
  0.276658  0.276658  0.276658      8.000000
  0.414987  0.276658  0.276658     16.000000
  0.414987  0.414987  0.276658      8.000000
  0.000000  0.000000  0.414987      2.000000
  0.138329  0.000000  0.414987      8.000000
  0.276658  0.000000  0.414987      8.000000
  0.414987  0.000000  0.414987      8.000000
  0.138329  0.138329  0.414987      8.000000
  0.276658  0.138329  0.414987     16.000000
  0.414987  0.138329  0.414987     16.000000
  0.276658  0.276658  0.414987      8.000000
  0.414987  0.276658  0.414987     16.000000
  0.414987  0.414987  0.414987      8.000000
 


--------------------------------------------------------------------------------------------------------




 Dimension of arrays:
   k-points           NKPTS =     40   k-points in BZ     NKDIM =     40   number of bands    NBANDS=     84
   number of dos      NEDOS =    301   number of ions     NIONS =     16
   non local maximal  LDIM  =      6   non local SUM 2l+1 LMDIM =     18
   total plane-waves  NPLWV =  46656
   max r-space proj   IRMAX =   4068   max aug-charges    IRDMAX=  25201
   dimension x,y,z NGX =    36 NGY =   36 NGZ =   36
   dimension x,y,z NGXF=    72 NGYF=   72 NGZF=   72
   support grid    NGXF=    72 NGYF=   72 NGZF=   72
   ions per type =               8   6   2
   NGX,Y,Z   is equivalent  to a cutoff of  10.06, 10.06, 10.06 a.u.
   NGXF,Y,Z  is equivalent  to a cutoff of  20.12, 20.12, 20.12 a.u.

 SYSTEM =  Testrun for NiMnIn                      
 POSCAR =  Ni2MnIn                                 

 Startparameter for this run:
   NWRITE =      2    write-flag & timer
   PREC   = normal    normal or accurate (medium, high low for compatibility)
   ISTART =      0    job   : 0-new  1-cont  2-samecut
   ICHARG =      2    charge: 1-file 2-atom 10-const
   ISPIN  =      2    spin polarized calculation?
   LNONCOLLINEAR =      F non collinear calculations
   LSORBIT =      F    spin-orbit coupling
   INIWAV =      1    electr: 0-lowe 1-rand  2-diag
   LASPH  =      F    aspherical Exc in radial PAW
   METAGGA=      F    non-selfconsistent MetaGGA calc.

 Electronic Relaxation 1
   ENCUT  =  550.0 eV  40.42 Ry    6.36 a.u.  11.37 11.37 11.37*2*pi/ulx,y,z
   ENINI  =  550.0     initial cutoff
   ENAUG  =  544.6 eV  augmentation charge cutoff
   NELM   =     60;   NELMIN=  2; NELMDL= -5     # of ELM steps 
   EDIFF  = 0.1E-04   stopping-criterion for ELM
   LREAL  =      T    real-space projection
   NLSPLINE    = F    spline interpolate recip. space projectors
   LCOMPAT=      F    compatible to vasp.4.4
   GGA_COMPAT  = T    GGA compatible to vasp.4.4-vasp.4.6
   LMAXPAW     = -100 max onsite density
   LMAXMIX     =    2 max onsite mixed and CHGCAR
   VOSKOWN=      0    Vosko Wilk Nusair interpolation
   ROPT   =   -0.00050  -0.00050  -0.00050
 Ionic relaxation
   EDIFFG = -.1E-01   stopping-criterion for IOM
   NSW    =   1000    number of steps for IOM
   NBLOCK =      1;   KBLOCK =   1000    inner block; outer block 
   IBRION =      2    ionic relax: 0-MD 1-quasi-New 2-CG
   NFREE  =      1    steps in history (QN), initial steepest desc. (CG)
   ISIF   =      2    stress and relaxation
   IWAVPR =     11    prediction:  0-non 1-charg 2-wave 3-comb
   ISYM   =      2    0-nonsym 1-usesym 2-fastsym
   LCORR  =      T    Harris-Foulkes like correction to forces

   POTIM  = 0.5000    time-step for ionic-motion
   TEIN   =    0.0    initial temperature
   TEBEG  =    0.0;   TEEND  =   0.0 temperature during run
   SMASS  =  -3.00    Nose mass-parameter (am)
   estimated Nose-frequenzy (Omega)   =  0.10E-29 period in steps =****** mass=  -0.809E-27a.u.
   SCALEE = 1.0000    scale energy and forces
   NPACO  =    256;   APACO  = 16.0  distance and # of slots for P.C.
   PSTRESS=    0.0 pullay stress

  Mass of Ions in am
   POMASS =  58.69 54.94114.82
  Ionic Valenz
   ZVAL   =  10.00  7.00  3.00
  Atomic Wigner-Seitz radii
   RWIGS  =  -1.00 -1.00 -1.00
  virtual crystal weights 
   VCA    =   1.00  1.00  1.00
   NELECT =     128.0000    total number of electrons
   NUPDOWN=      -1.0000    fix difference up-down

 DOS related values:
   EMIN   =  10.00;   EMAX   =-10.00  energy-range for DOS
   EFERMI =   0.00
   ISMEAR =     0;   SIGMA  =   0.02  broadening in eV -4-tet -1-fermi 0-gaus

 Electronic relaxation 2 (details)
   IALGO  =     68    algorithm
   LDIAG  =      T    sub-space diagonalisation (order eigenvalues)
   LSUBROT=      F    optimize rotation matrix (better conditioning)
   TURBO    =      0    0=normal 1=particle mesh
   IRESTART =      0    0=no restart 2=restart with 2 vectors
   NREBOOT  =      0    no. of reboots
   NMIN     =      0    reboot dimension
   EREF     =   0.00    reference energy to select bands
   IMIX   =      4    mixing-type and parameters
     AMIX     =   0.40;   BMIX     =  1.00
     AMIX_MAG =   1.60;   BMIX_MAG =  1.00
     AMIN     =   0.10
     WC   =   100.;   INIMIX=   1;  MIXPRE=   1;  MAXMIX= -45

 Intra band minimization:
   WEIMIN = 0.0010     energy-eigenvalue tresh-hold
   EBREAK =  0.30E-07  absolut break condition
   DEPER  =   0.30     relativ break condition  

   TIME   =   0.40     timestep for ELM

  volume/ion in A,a.u.               =      13.16        88.78
  Fermi-wavevector in a.u.,A,eV,Ry     =   1.386969  2.620991 26.173297  1.923683
  Thomas-Fermi vector in A             =   2.511235

 Write flags
   LWAVE        =      F    write WAVECAR
   LDOWNSAMPLE  =      F    k-point downsampling of WAVECAR
   LCHARG       =      T    write CHGCAR
   LVTOT        =      F    write LOCPOT, total local potential
   LVHAR        =      F    write LOCPOT, Hartree potential only
   LELF         =      F    write electronic localiz. function (ELF)
   LORBIT       =     11    0 simple, 1 ext, 2 COOP (PROOUT), +10 PAW based schemes


 Dipole corrections
   LMONO  =      F    monopole corrections only (constant potential shift)
   LDIPOL =      F    correct potential (dipole corrections)
   IDIPOL =      0    1-x, 2-y, 3-z, 4-all directions 
   EPSILON=  1.0000000 bulk dielectric constant

 Exchange correlation treatment:
   GGA     =    --    GGA type
   LEXCH   =     8    internal setting for exchange type
   VOSKOWN=      0    Vosko Wilk Nusair interpolation
   LHFCALC =     F    Hartree Fock is set to
   LHFONE  =     F    Hartree Fock one center treatment
   AEXX    =    0.0000 exact exchange contribution

 Linear response parameters
   LEPSILON=     F    determine dielectric tensor
   LRPA    =     F    only Hartree local field effects (RPA)
   LNABLA  =     F    use nabla operator in PAW spheres
   LVEL    =     F    velocity operator in full k-point grid
   LINTERFAST=   F  fast interpolation
   KINTER  =     0    interpolate to denser k-point grid
   CSHIFT  =0.1000    complex shift for real part using Kramers Kronig
   OMEGAMAX=  -1.0    maximum frequency
   DEG_THRESHOLD= 0.2000000E-02 threshold for treating states as degnerate
   RTIME   =   -0.100 relaxation time in fs
  (WPLASMAI=    0.000 imaginary part of plasma frequency in eV, 0.658/RTIME)
   DFIELD  = 0.0000000 0.0000000 0.0000000 field for delta impulse in time

 Orbital magnetization related:
   ORBITALMAG=     F  switch on orbital magnetization
   LCHIMAG   =     F  perturbation theory with respect to B field
   DQ        =  0.001000  dq finite difference perturbation B field
   LLRAUG    =     F  two centre corrections for induced B field



--------------------------------------------------------------------------------------------------------


 conjugate gradient relaxation of ions
 charge density and potential will be updated during run
 spin polarized calculation
 RMM-DIIS sequential band-by-band and
  variant of blocked Davidson during initial phase
 perform sub-space diagonalisation
    before iterative eigenvector-optimisation
 modified Broyden-mixing scheme, WC =      100.0
 initial mixing is a Kerker type mixing with AMIX =  0.4000 and BMIX =      1.0000
 Hartree-type preconditioning will be used
 using additional bands           20
 real space projection scheme for non local part
 use partial core corrections
 calculate Harris-corrections to forces   (improved forces if not selfconsistent)
 use gradient corrections 
 use of overlap-Matrix (Vanderbilt PP)
 Gauss-broadening in eV      SIGMA  =   0.02


--------------------------------------------------------------------------------------------------------


  energy-cutoff  :      550.00
  volume of cell :      210.49
      direct lattice vectors                 reciprocal lattice vectors
     5.948553844  0.000000000  0.000000000     0.168108086  0.000000000  0.000000000
     0.000000000  5.948553844  0.000000000     0.000000000  0.168108086  0.000000000
     0.000000000  0.000000000  5.948553844     0.000000000  0.000000000  0.168108086

  length of vectors
     5.948553844  5.948553844  5.948553844     0.168108086  0.168108086  0.168108086



 k-points in units of 2pi/SCALE and weight: k-points                                
   0.00000000  0.00000000  0.00000000       0.003
   0.13832894  0.00000000  0.00000000       0.012
   0.27665788  0.00000000  0.00000000       0.012
   0.41498682  0.00000000  0.00000000       0.012
   0.13832894  0.13832894  0.00000000       0.012
   0.27665788  0.13832894  0.00000000       0.023
   0.41498682  0.13832894  0.00000000       0.023
   0.27665788  0.27665788  0.00000000       0.012
   0.41498682  0.27665788  0.00000000       0.023
   0.41498682  0.41498682  0.00000000       0.012
   0.00000000  0.00000000  0.13832894       0.006
   0.13832894  0.00000000  0.13832894       0.023
   0.27665788  0.00000000  0.13832894       0.023
   0.41498682  0.00000000  0.13832894       0.023
   0.13832894  0.13832894  0.13832894       0.023
   0.27665788  0.13832894  0.13832894       0.047
   0.41498682  0.13832894  0.13832894       0.047
   0.27665788  0.27665788  0.13832894       0.023
   0.41498682  0.27665788  0.13832894       0.047
   0.41498682  0.41498682  0.13832894       0.023
   0.00000000  0.00000000  0.27665788       0.006
   0.13832894  0.00000000  0.27665788       0.023
   0.27665788  0.00000000  0.27665788       0.023
   0.41498682  0.00000000  0.27665788       0.023
   0.13832894  0.13832894  0.27665788       0.023
   0.27665788  0.13832894  0.27665788       0.047
   0.41498682  0.13832894  0.27665788       0.047
   0.27665788  0.27665788  0.27665788       0.023
   0.41498682  0.27665788  0.27665788       0.047
   0.41498682  0.41498682  0.27665788       0.023
   0.00000000  0.00000000  0.41498682       0.006
   0.13832894  0.00000000  0.41498682       0.023
   0.27665788  0.00000000  0.41498682       0.023
   0.41498682  0.00000000  0.41498682       0.023
   0.13832894  0.13832894  0.41498682       0.023
   0.27665788  0.13832894  0.41498682       0.047
   0.41498682  0.13832894  0.41498682       0.047
   0.27665788  0.27665788  0.41498682       0.023
   0.41498682  0.27665788  0.41498682       0.047
   0.41498682  0.41498682  0.41498682       0.023

 k-points in reciprocal lattice and weights: k-points                                
   0.00000000  0.00000000  0.00000000       0.003
   0.14285714  0.00000000  0.00000000       0.012
   0.28571429  0.00000000  0.00000000       0.012
   0.42857143  0.00000000  0.00000000       0.012
   0.14285714  0.14285714  0.00000000       0.012
   0.28571429  0.14285714  0.00000000       0.023
   0.42857143  0.14285714  0.00000000       0.023
   0.28571429  0.28571429  0.00000000       0.012
   0.42857143  0.28571429  0.00000000       0.023
   0.42857143  0.42857143  0.00000000       0.012
   0.00000000  0.00000000  0.14285714       0.006
   0.14285714  0.00000000  0.14285714       0.023
   0.28571429  0.00000000  0.14285714       0.023
   0.42857143  0.00000000  0.14285714       0.023
   0.14285714  0.14285714  0.14285714       0.023
   0.28571429  0.14285714  0.14285714       0.047
   0.42857143  0.14285714  0.14285714       0.047
   0.28571429  0.28571429  0.14285714       0.023
   0.42857143  0.28571429  0.14285714       0.047
   0.42857143  0.42857143  0.14285714       0.023
   0.00000000  0.00000000  0.28571429       0.006
   0.14285714  0.00000000  0.28571429       0.023
   0.28571429  0.00000000  0.28571429       0.023
   0.42857143  0.00000000  0.28571429       0.023
   0.14285714  0.14285714  0.28571429       0.023
   0.28571429  0.14285714  0.28571429       0.047
   0.42857143  0.14285714  0.28571429       0.047
   0.28571429  0.28571429  0.28571429       0.023
   0.42857143  0.28571429  0.28571429       0.047
   0.42857143  0.42857143  0.28571429       0.023
   0.00000000  0.00000000  0.42857143       0.006
   0.14285714  0.00000000  0.42857143       0.023
   0.28571429  0.00000000  0.42857143       0.023
   0.42857143  0.00000000  0.42857143       0.023
   0.14285714  0.14285714  0.42857143       0.023
   0.28571429  0.14285714  0.42857143       0.047
   0.42857143  0.14285714  0.42857143       0.047
   0.28571429  0.28571429  0.42857143       0.023
   0.42857143  0.28571429  0.42857143       0.047
   0.42857143  0.42857143  0.42857143       0.023

 position of ions in fractional coordinates (direct lattice) 
   0.25592972  0.24407028  0.26275456
   0.74407028  0.24407028  0.26275456
   0.25592972  0.75592972  0.26275456
   0.74407028  0.75592972  0.26275456
   0.25592972  0.24407028  0.73724544
   0.74407028  0.24407028  0.73724544
   0.25592972  0.75592972  0.73724544
   0.74407028  0.75592972  0.73724544
   0.50000000  0.00000000  0.00000000
   0.00000000  0.50000000  0.00000000
   0.00000000  0.00000000  0.50000000
   0.50000000  0.00000000  0.50000000
   0.50000000  0.50000000  0.50000000
   0.00000000  0.50000000  0.50000000
   0.00000000  0.00000000  0.00000000
   0.50000000  0.50000000  0.00000000

 position of ions in cartesian coordinates  (Angst):
   1.52241174  1.45186518  1.56300963
   4.42614210  1.45186518  1.56300963
   1.52241174  4.49668866  1.56300963
   4.42614210  4.49668866  1.56300963
   1.52241174  1.45186518  4.38554421
   4.42614210  1.45186518  4.38554421
   1.52241174  4.49668866  4.38554421
   4.42614210  4.49668866  4.38554421
   2.97427692  0.00000000  0.00000000
   0.00000000  2.97427692  0.00000000
   0.00000000  0.00000000  2.97427692
   2.97427692  0.00000000  2.97427692
   2.97427692  2.97427692  2.97427692
   0.00000000  2.97427692  2.97427692
   0.00000000  0.00000000  0.00000000
   2.97427692  2.97427692  0.00000000



--------------------------------------------------------------------------------------------------------


 k-point  1 :   0.0000 0.0000 0.0000  plane waves:    6187
 k-point  2 :   0.1429 0.0000 0.0000  plane waves:    6163
 k-point  3 :   0.2857 0.0000 0.0000  plane waves:    6159
 k-point  4 :   0.4286 0.0000 0.0000  plane waves:    6178
 k-point  5 :   0.1429 0.1429 0.0000  plane waves:    6180
 k-point  6 :   0.2857 0.1429 0.0000  plane waves:    6172
 k-point  7 :   0.4286 0.1429 0.0000  plane waves:    6178
 k-point  8 :   0.2857 0.2857 0.0000  plane waves:    6166
 k-point  9 :   0.4286 0.2857 0.0000  plane waves:    6155
 k-point 10 :   0.4286 0.4286 0.0000  plane waves:    6166
 k-point 11 :   0.0000 0.0000 0.1429  plane waves:    6163
 k-point 12 :   0.1429 0.0000 0.1429  plane waves:    6180
 k-point 13 :   0.2857 0.0000 0.1429  plane waves:    6172
 k-point 14 :   0.4286 0.0000 0.1429  plane waves:    6178
 k-point 15 :   0.1429 0.1429 0.1429  plane waves:    6169
 k-point 16 :   0.2857 0.1429 0.1429  plane waves:    6154
 k-point 17 :   0.4286 0.1429 0.1429  plane waves:    6162
 k-point 18 :   0.2857 0.2857 0.1429  plane waves:    6167
 k-point 19 :   0.4286 0.2857 0.1429  plane waves:    6157
 k-point 20 :   0.4286 0.4286 0.1429  plane waves:    6164
 k-point 21 :   0.0000 0.0000 0.2857  plane waves:    6159
 k-point 22 :   0.1429 0.0000 0.2857  plane waves:    6172
 k-point 23 :   0.2857 0.0000 0.2857  plane waves:    6166
 k-point 24 :   0.4286 0.0000 0.2857  plane waves:    6155
 k-point 25 :   0.1429 0.1429 0.2857  plane waves:    6154
 k-point 26 :   0.2857 0.1429 0.2857  plane waves:    6167
 k-point 27 :   0.4286 0.1429 0.2857  plane waves:    6157
 k-point 28 :   0.2857 0.2857 0.2857  plane waves:    6166
 k-point 29 :   0.4286 0.2857 0.2857  plane waves:    6174
 k-point 30 :   0.4286 0.4286 0.2857  plane waves:    6144
 k-point 31 :   0.0000 0.0000 0.4286  plane waves:    6178
 k-point 32 :   0.1429 0.0000 0.4286  plane waves:    6178
 k-point 33 :   0.2857 0.0000 0.4286  plane waves:    6155
 k-point 34 :   0.4286 0.0000 0.4286  plane waves:    6166
 k-point 35 :   0.1429 0.1429 0.4286  plane waves:    6162
 k-point 36 :   0.2857 0.1429 0.4286  plane waves:    6157
 k-point 37 :   0.4286 0.1429 0.4286  plane waves:    6164
 k-point 38 :   0.2857 0.2857 0.4286  plane waves:    6174
 k-point 39 :   0.4286 0.2857 0.4286  plane waves:    6144
 k-point 40 :   0.4286 0.4286 0.4286  plane waves:    6112

 maximum and minimum number of plane-waves per node :      6187     6112

 maximum number of plane-waves:      6187
 maximum index in each direction: 
   IXMAX=   11   IYMAX=   11   IZMAX=   11
   IXMIN=  -11   IYMIN=  -11   IZMIN=  -11


 serial   3D FFT for wavefunctions
 parallel 3D FFT for charge:
    minimum data exchange during FFTs selected (reduces bandwidth)


 total amount of memory used by VASP MPI-rank0   103235. kBytes
=======================================================================

   base      :      30000. kBytes
   nonlr-proj:       6836. kBytes
   fftplans  :       1269. kBytes
   grid      :       6573. kBytes
   one-center:        497. kBytes
   wavefun   :      58060. kBytes

     INWAV:  cpu time    0.0000: real time    0.0000
 Broyden mixing: mesh for mixing (old mesh)
   NGX = 23   NGY = 23   NGZ = 23
  (NGX  = 72   NGY  = 72   NGZ  = 72)
  gives a total of  12167 points

 initial charge density was supplied:
 charge density of overlapping atoms calculated
 number of electron     128.0000000 magnetization       0.8000000
 keeping initial charge density in first step


--------------------------------------------------------------------------------------------------------


 Maximum index for non-local projection operator         3887
 Maximum index for augmentation-charges         2127 (set IRDMAX)


--------------------------------------------------------------------------------------------------------


 First call to EWALD:  gamma=   0.298
 Maximum number of real-space cells 3x 3x 3
 Maximum number of reciprocal cells 3x 3x 3

    FEWALD:  cpu time    0.0022: real time    0.0022


--------------------------------------- Iteration      1(   1)  ---------------------------------------


    POTLOK:  cpu time    0.1006: real time    0.1069
    SETDIJ:  cpu time    0.0364: real time    0.0365
     EDDAV:  cpu time   23.8758: real time   23.9118
       DOS:  cpu time    0.0037: real time    0.0037
    --------------------------------------------
      LOOP:  cpu time   24.0165: real time   24.0588

 eigenvalue-minimisations  : 13440
 total energy-change (2. order) : 0.1070182E+04  (-0.5420974E+04)
 number of electron     128.0000000 magnetization       0.8000000
 augmentation part      128.0000000 magnetization       0.8000000

 Free energy of the ion-electron system (eV)
  ---------------------------------------------------
  alpha Z        PSCENC =       534.58056533
  Ewald energy   TEWEN  =     -9337.09740544
  -Hartree energ DENC   =     -3100.13055231
  -exchange      EXHF   =         0.00000000
  -V(xc)+E(xc)   XCENC  =        78.22540770
  PAW double counting   =     10320.96726947   -10647.99417394
  entropy T*S    EENTRO =        -0.00157047
  eigenvalues    EBANDS =      1992.17054688
  atomic energy  EATOM  =     11229.46195210
  Solvation  Ediel_sol  =         0.00000000
  ---------------------------------------------------
  free energy    TOTEN  =      1070.18203932 eV

  energy without entropy =     1070.18360979  energy(sigma->0) =     1070.18282456


--------------------------------------------------------------------------------------------------------




--------------------------------------- Iteration      1(   2)  ---------------------------------------


     EDDAV:  cpu time   24.7661: real time   24.8053
       DOS:  cpu time    0.0037: real time    0.0038
    --------------------------------------------
      LOOP:  cpu time   24.7699: real time   24.8090

 eigenvalue-minimisations  : 13440
 total energy-change (2. order) :-0.1069162E+04  (-0.1036027E+04)
 number of electron     128.0000000 magnetization       0.8000000
 augmentation part      128.0000000 magnetization       0.8000000

 Free energy of the ion-electron system (eV)
  ---------------------------------------------------
  alpha Z        PSCENC =       534.58056533
  Ewald energy   TEWEN  =     -9337.09740544
  -Hartree energ DENC   =     -3100.13055231
  -exchange      EXHF   =         0.00000000
  -V(xc)+E(xc)   XCENC  =        78.22540770
  PAW double counting   =     10320.96726947   -10647.99417394
  entropy T*S    EENTRO =        -0.00286573
  eigenvalues    EBANDS =       923.00981392
  atomic energy  EATOM  =     11229.46195210
  Solvation  Ediel_sol  =         0.00000000
  ---------------------------------------------------
  free energy    TOTEN  =         1.02001109 eV

  energy without entropy =        1.02287682  energy(sigma->0) =        1.02144396


--------------------------------------------------------------------------------------------------------




--------------------------------------- Iteration      1(   3)  ---------------------------------------


     EDDAV:  cpu time   26.2248: real time   26.2626
       DOS:  cpu time    0.0038: real time    0.0038
    --------------------------------------------
      LOOP:  cpu time   26.2286: real time   26.2665

 eigenvalue-minimisations  : 15072
 total energy-change (2. order) :-0.1115089E+03  (-0.1004698E+03)
 number of electron     128.0000000 magnetization       0.8000000
 augmentation part      128.0000000 magnetization       0.8000000

 Free energy of the ion-electron system (eV)
  ---------------------------------------------------
  alpha Z        PSCENC =       534.58056533
  Ewald energy   TEWEN  =     -9337.09740544
  -Hartree energ DENC   =     -3100.13055231
  -exchange      EXHF   =         0.00000000
  -V(xc)+E(xc)   XCENC  =        78.22540770
  PAW double counting   =     10320.96726947   -10647.99417394
  entropy T*S    EENTRO =        -0.00242795
  eigenvalues    EBANDS =       811.50046688
  atomic energy  EATOM  =     11229.46195210
  Solvation  Ediel_sol  =         0.00000000
  ---------------------------------------------------
  free energy    TOTEN  =      -110.48889816 eV

  energy without entropy =     -110.48647021  energy(sigma->0) =     -110.48768419


--------------------------------------------------------------------------------------------------------




--------------------------------------- Iteration      1(   4)  ---------------------------------------


     EDDAV:  cpu time   33.7088: real time   33.7555
       DOS:  cpu time    0.0037: real time    0.0037
    --------------------------------------------
      LOOP:  cpu time   33.7125: real time   33.7592

 eigenvalue-minimisations  : 20364
 total energy-change (2. order) :-0.6764122E+01  (-0.6427334E+01)
 number of electron     128.0000000 magnetization       0.8000000
 augmentation part      128.0000000 magnetization       0.8000000

 Free energy of the ion-electron system (eV)
  ---------------------------------------------------
  alpha Z        PSCENC =       534.58056533
  Ewald energy   TEWEN  =     -9337.09740544
  -Hartree energ DENC   =     -3100.13055231
  -exchange      EXHF   =         0.00000000
  -V(xc)+E(xc)   XCENC  =        78.22540770
  PAW double counting   =     10320.96726947   -10647.99417394
  entropy T*S    EENTRO =        -0.00260608
  eigenvalues    EBANDS =       804.73652340
  atomic energy  EATOM  =     11229.46195210
  Solvation  Ediel_sol  =         0.00000000
  ---------------------------------------------------
  free energy    TOTEN  =      -117.25301977 eV

  energy without entropy =     -117.25041369  energy(sigma->0) =     -117.25171673


--------------------------------------------------------------------------------------------------------




--------------------------------------- Iteration      1(   5)  ---------------------------------------


     EDDAV:  cpu time   32.8377: real time   32.8853
       DOS:  cpu time    0.0038: real time    0.0039
    CHARGE:  cpu time    0.7149: real time    0.7158
    MIXING:  cpu time    0.0016: real time    0.0016
    --------------------------------------------
      LOOP:  cpu time   33.5581: real time   33.6066

 eigenvalue-minimisations  : 19824
 total energy-change (2. order) :-0.2186010E+00  (-0.2175639E+00)
 number of electron     128.0000273 magnetization       0.2806523
 augmentation part       60.6467072 magnetization       0.3000791

 Broyden mixing:
  rms(total) = 0.34407E+01    rms(broyden)= 0.34407E+01
  rms(prec ) = 0.53379E+01
  weight for this iteration     100.00

 Free energy of the ion-electron system (eV)
  ---------------------------------------------------
  alpha Z        PSCENC =       534.58056533
  Ewald energy   TEWEN  =     -9337.09740544
  -Hartree energ DENC   =     -3100.13055231
  -exchange      EXHF   =         0.00000000
  -V(xc)+E(xc)   XCENC  =        78.22540770
  PAW double counting   =     10320.96726947   -10647.99417394
  entropy T*S    EENTRO =        -0.00254894
  eigenvalues    EBANDS =       804.51786526
  atomic energy  EATOM  =     11229.46195210
  Solvation  Ediel_sol  =         0.00000000
  ---------------------------------------------------
  free energy    TOTEN  =      -117.47162078 eV

  energy without entropy =     -117.46907184  energy(sigma->0) =     -117.47034631


--------------------------------------------------------------------------------------------------------




--------------------------------------- Iteration      1(   6)  ---------------------------------------


    POTLOK:  cpu time    0.1038: real time    0.1055
    SETDIJ:  cpu time    0.0379: real time    0.0379
    EDDIAG:  cpu time    3.3358: real time    3.3399
  RMM-DIIS:  cpu time   10.6723: real time   10.6858
    ORTHCH:  cpu time    0.6384: real time    0.6393
       DOS:  cpu time    0.0038: real time    0.0038
    CHARGE:  cpu time    0.7099: real time    0.7107
    MIXING:  cpu time    0.0017: real time    0.0017
    --------------------------------------------
      LOOP:  cpu time   15.5036: real time   15.5247

 eigenvalue-minimisations  : 13440
 total energy-change (2. order) : 0.6348032E+01  (-0.1687107E+02)
 number of electron     128.0000304 magnetization       1.2101999
 augmentation part       69.5614125 magnetization       0.2246314

 Broyden mixing:
  rms(total) = 0.49663E+01    rms(broyden)= 0.49662E+01
  rms(prec ) = 0.69287E+01
  weight for this iteration     100.00

 eigenvalues of (default mixing * dielectric matrix)
  average eigenvalue GAMMA=   0.2110
  0.2110

 Free energy of the ion-electron system (eV)
  ---------------------------------------------------
  alpha Z        PSCENC =       534.58056533
  Ewald energy   TEWEN  =     -9337.09740544
  -Hartree energ DENC   =     -2868.12084169
  -exchange      EXHF   =         0.00000000
  -V(xc)+E(xc)   XCENC  =        66.49581969
  PAW double counting   =     11141.22096261   -11434.81576413
  entropy T*S    EENTRO =        -0.00381211
  eigenvalues    EBANDS =       557.15493451
  atomic energy  EATOM  =     11229.46195210
  Solvation  Ediel_sol  =         0.00000000
  ---------------------------------------------------
  free energy    TOTEN  =      -111.12358914 eV

  energy without entropy =     -111.11977702  energy(sigma->0) =     -111.12168308


--------------------------------------------------------------------------------------------------------




--------------------------------------- Iteration      1(   7)  ---------------------------------------


    POTLOK:  cpu time    0.1010: real time    0.1010
    SETDIJ:  cpu time    0.0368: real time    0.0368
    EDDIAG:  cpu time    3.3393: real time    3.3435
  RMM-DIIS:  cpu time   10.7336: real time   10.7464
    ORTHCH:  cpu time    0.6321: real time    0.6328
       DOS:  cpu time    0.0038: real time    0.0038
    CHARGE:  cpu time    0.7047: real time    0.7056
    MIXING:  cpu time    0.0017: real time    0.0017
    --------------------------------------------
      LOOP:  cpu time   15.5529: real time   15.5716

 eigenvalue-minimisations  : 13470
 total energy-change (2. order) :-0.2242187E+01  (-0.2627396E+01)
 number of electron     128.0000301 magnetization       1.6473116
 augmentation part       70.3375967 magnetization       1.7622208

 Broyden mixing:
  rms(total) = 0.40709E+01    rms(broyden)= 0.40708E+01
  rms(prec ) = 0.76478E+01
  weight for this iteration     100.00

 eigenvalues of (default mixing * dielectric matrix)
  average eigenvalue GAMMA=   0.3559
  0.3559  0.3559

 Free energy of the ion-electron system (eV)
  ---------------------------------------------------
  alpha Z        PSCENC =       534.58056533
  Ewald energy   TEWEN  =     -9337.09740544
  -Hartree energ DENC   =     -2853.02961181
  -exchange      EXHF   =         0.00000000
  -V(xc)+E(xc)   XCENC  =        66.79831614
  PAW double counting   =     11402.79856706   -11700.54741832
  entropy T*S    EENTRO =        -0.00285661
  eigenvalues    EBANDS =       543.67211585
  atomic energy  EATOM  =     11229.46195210
  Solvation  Ediel_sol  =         0.00000000
  ---------------------------------------------------
  free energy    TOTEN  =      -113.36577571 eV

  energy without entropy =     -113.36291909  energy(sigma->0) =     -113.36434740


--------------------------------------------------------------------------------------------------------




--------------------------------------- Iteration      1(   8)  ---------------------------------------


    POTLOK:  cpu time    0.0993: real time    0.0993
    SETDIJ:  cpu time    0.0371: real time    0.0371
    EDDIAG:  cpu time    3.3547: real time    3.3601
  RMM-DIIS:  cpu time   10.7476: real time   10.7625
    ORTHCH:  cpu time    0.6396: real time    0.6404
       DOS:  cpu time    0.0040: real time    0.0040
    CHARGE:  cpu time    0.7079: real time    0.7086
    MIXING:  cpu time    0.0018: real time    0.0018
    --------------------------------------------
      LOOP:  cpu time   15.5919: real time   15.6138

 eigenvalue-minimisations  : 13440
 total energy-change (2. order) : 0.5844554E+01  (-0.2677945E+01)
 number of electron     128.0000305 magnetization       2.2911098
 augmentation part       69.1042725 magnetization       1.0767003

 Broyden mixing:
  rms(total) = 0.30912E+01    rms(broyden)= 0.30911E+01
  rms(prec ) = 0.59429E+01
  weight for this iteration     100.00

 eigenvalues of (default mixing * dielectric matrix)
  average eigenvalue GAMMA=   0.3903
  0.5079  0.5079  0.1551

 Free energy of the ion-electron system (eV)
  ---------------------------------------------------
  alpha Z        PSCENC =       534.58056533
  Ewald energy   TEWEN  =     -9337.09740544
  -Hartree energ DENC   =     -2897.40200875
  -exchange      EXHF   =         0.00000000
  -V(xc)+E(xc)   XCENC  =        69.83881237
  PAW double counting   =     11737.63646488   -12056.19853232
  entropy T*S    EENTRO =        -0.00376292
  eigenvalues    EBANDS =       611.66269323
  atomic energy  EATOM  =     11229.46195210
  Solvation  Ediel_sol  =         0.00000000
  ---------------------------------------------------
  free energy    TOTEN  =      -107.52122153 eV

  energy without entropy =     -107.51745861  energy(sigma->0) =     -107.51934007


--------------------------------------------------------------------------------------------------------




--------------------------------------- Iteration      1(   9)  ---------------------------------------


    POTLOK:  cpu time    0.0997: real time    0.0998
    SETDIJ:  cpu time    0.0370: real time    0.0371
    EDDIAG:  cpu time    3.3518: real time    3.3573
  RMM-DIIS:  cpu time   10.6985: real time   10.7125
    ORTHCH:  cpu time    0.6385: real time    0.6391
       DOS:  cpu time    0.0039: real time    0.0039
    CHARGE:  cpu time    0.7076: real time    0.7080
    MIXING:  cpu time    0.0018: real time    0.0018
    --------------------------------------------
      LOOP:  cpu time   15.5389: real time   15.5596

 eigenvalue-minimisations  : 13464
 total energy-change (2. order) : 0.3827799E+01  (-0.9356533E+00)
 number of electron     128.0000295 magnetization       2.1061586
 augmentation part       66.7690779 magnetization       2.1138045

 Broyden mixing:
  rms(total) = 0.18784E+01    rms(broyden)= 0.18784E+01
  rms(prec ) = 0.30055E+01
  weight for this iteration     100.00

 eigenvalues of (default mixing * dielectric matrix)
  average eigenvalue GAMMA=   0.4588
  0.9672  0.4831  0.2544  0.1305

 Free energy of the ion-electron system (eV)
  ---------------------------------------------------
  alpha Z        PSCENC =       534.58056533
  Ewald energy   TEWEN  =     -9337.09740544
  -Hartree energ DENC   =     -2923.21913232
  -exchange      EXHF   =         0.00000000
  -V(xc)+E(xc)   XCENC  =        71.45565972
  PAW double counting   =     11959.10948169   -12289.22475350
  entropy T*S    EENTRO =        -0.00360464
  eigenvalues    EBANDS =       651.24381453
  atomic energy  EATOM  =     11229.46195210
  Solvation  Ediel_sol  =         0.00000000
  ---------------------------------------------------
  free energy    TOTEN  =      -103.69342254 eV

  energy without entropy =     -103.68981790  energy(sigma->0) =     -103.69162022


--------------------------------------------------------------------------------------------------------




--------------------------------------- Iteration      1(  10)  ---------------------------------------


    POTLOK:  cpu time    0.1039: real time    0.1046
    SETDIJ:  cpu time    0.0377: real time    0.0377
    EDDIAG:  cpu time    3.3874: real time    3.3906
  RMM-DIIS:  cpu time   10.7809: real time   10.7897
    ORTHCH:  cpu time    0.6406: real time    0.6411
       DOS:  cpu time    0.0037: real time    0.0038
    CHARGE:  cpu time    0.7076: real time    0.7081
    MIXING:  cpu time    0.0020: real time    0.0020
    --------------------------------------------
      LOOP:  cpu time   15.6638: real time   15.6776

 eigenvalue-minimisations  : 13442
 total energy-change (2. order) : 0.1075887E+01  (-0.1944075E+00)
 number of electron     128.0000299 magnetization       1.4189423
 augmentation part       67.5409329 magnetization       1.7640481

 Broyden mixing:
  rms(total) = 0.10326E+01    rms(broyden)= 0.10325E+01
  rms(prec ) = 0.12299E+01
  weight for this iteration     100.00

 eigenvalues of (default mixing * dielectric matrix)
  average eigenvalue GAMMA=   0.4428
  0.9829  0.4459  0.4459  0.2061  0.1334

 Free energy of the ion-electron system (eV)
  ---------------------------------------------------
  alpha Z        PSCENC =       534.58056533
  Ewald energy   TEWEN  =     -9337.09740544
  -Hartree energ DENC   =     -2907.90258437
  -exchange      EXHF   =         0.00000000
  -V(xc)+E(xc)   XCENC  =        71.15451888
  PAW double counting   =     12249.32188226   -12582.35111566
  entropy T*S    EENTRO =        -0.00141519
  eigenvalues    EBANDS =       640.21606685
  atomic energy  EATOM  =     11229.46195210
  Solvation  Ediel_sol  =         0.00000000
  ---------------------------------------------------
  free energy    TOTEN  =      -102.61753524 eV

  energy without entropy =     -102.61612005  energy(sigma->0) =     -102.61682764


--------------------------------------------------------------------------------------------------------




--------------------------------------- Iteration      1(  11)  ---------------------------------------


    POTLOK:  cpu time    0.0995: real time    0.0996
    SETDIJ:  cpu time    0.0371: real time    0.0372
    EDDIAG:  cpu time    3.3669: real time    3.3701
  RMM-DIIS:  cpu time   10.8495: real time   10.8585
    ORTHCH:  cpu time    0.6477: real time    0.6483
       DOS:  cpu time    0.0037: real time    0.0037
    CHARGE:  cpu time    0.7213: real time    0.7218
    MIXING:  cpu time    0.0021: real time    0.0021
    --------------------------------------------
      LOOP:  cpu time   15.7279: real time   15.7412

 eigenvalue-minimisations  : 13560
 total energy-change (2. order) :-0.1963736E+00  (-0.3053103E-01)
 number of electron     128.0000298 magnetization       0.4338688
 augmentation part       67.4400369 magnetization       0.6286222

 Broyden mixing:
  rms(total) = 0.72007E+00    rms(broyden)= 0.72007E+00
  rms(prec ) = 0.78561E+00
  weight for this iteration     100.00

 eigenvalues of (default mixing * dielectric matrix)
  average eigenvalue GAMMA=   0.5778
  0.9694  0.8076  0.8076  0.5509  0.2000  0.1314

 Free energy of the ion-electron system (eV)
  ---------------------------------------------------
  alpha Z        PSCENC =       534.58056533
  Ewald energy   TEWEN  =     -9337.09740544
  -Hartree energ DENC   =     -2907.00167720
  -exchange      EXHF   =         0.00000000
  -V(xc)+E(xc)   XCENC  =        72.31917932
  PAW double counting   =     12387.81678633   -12723.83815651
  entropy T*S    EENTRO =        -0.00170867
  eigenvalues    EBANDS =       640.94655585
  atomic energy  EATOM  =     11229.46195210
  Solvation  Ediel_sol  =         0.00000000
  ---------------------------------------------------
  free energy    TOTEN  =      -102.81390889 eV

  energy without entropy =     -102.81220022  energy(sigma->0) =     -102.81305455


--------------------------------------------------------------------------------------------------------




--------------------------------------- Iteration      1(  12)  ---------------------------------------


    POTLOK:  cpu time    0.0997: real time    0.0998
    SETDIJ:  cpu time    0.0370: real time    0.0370
    EDDIAG:  cpu time    3.3837: real time    3.3870
  RMM-DIIS:  cpu time   10.7905: real time   10.7994
    ORTHCH:  cpu time    0.6398: real time    0.6404
       DOS:  cpu time    0.0039: real time    0.0039
    CHARGE:  cpu time    0.7170: real time    0.7174
    MIXING:  cpu time    0.0023: real time    0.0023
    --------------------------------------------
      LOOP:  cpu time   15.6739: real time   15.6872

 eigenvalue-minimisations  : 13522
 total energy-change (2. order) :-0.4269231E+00  (-0.5445458E-01)
 number of electron     128.0000296 magnetization      -0.7349179
 augmentation part       67.4060874 magnetization      -0.2612952

 Broyden mixing:
  rms(total) = 0.65375E+00    rms(broyden)= 0.65373E+00
  rms(prec ) = 0.92998E+00
  weight for this iteration     100.00

 eigenvalues of (default mixing * dielectric matrix)
  average eigenvalue GAMMA=   0.6546
  1.7948  0.7478  0.7478  0.6788  0.1315  0.2020  0.2793

 Free energy of the ion-electron system (eV)
  ---------------------------------------------------
  alpha Z        PSCENC =       534.58056533
  Ewald energy   TEWEN  =     -9337.09740544
  -Hartree energ DENC   =     -2904.82943521
  -exchange      EXHF   =         0.00000000
  -V(xc)+E(xc)   XCENC  =        73.93931269
  PAW double counting   =     12589.73741800   -12929.63091764
  entropy T*S    EENTRO =        -0.00147079
  eigenvalues    EBANDS =       640.59914902
  atomic energy  EATOM  =     11229.46195210
  Solvation  Ediel_sol  =         0.00000000
  ---------------------------------------------------
  free energy    TOTEN  =      -103.24083194 eV

  energy without entropy =     -103.23936115  energy(sigma->0) =     -103.24009655


--------------------------------------------------------------------------------------------------------




--------------------------------------- Iteration      1(  13)  ---------------------------------------


    POTLOK:  cpu time    0.0995: real time    0.0996
    SETDIJ:  cpu time    0.0369: real time    0.0369
    EDDIAG:  cpu time    3.3812: real time    3.3846
  RMM-DIIS:  cpu time   10.8302: real time   10.8391
    ORTHCH:  cpu time    0.6408: real time    0.6413
       DOS:  cpu time    0.0037: real time    0.0037
    CHARGE:  cpu time    0.7220: real time    0.7225
    MIXING:  cpu time    0.0023: real time    0.0023
    --------------------------------------------
      LOOP:  cpu time   15.7165: real time   15.7300

 eigenvalue-minimisations  : 13557
 total energy-change (2. order) :-0.8524279E-02  (-0.4314025E-01)
 number of electron     128.0000298 magnetization      -0.6897261
 augmentation part       67.7593549 magnetization      -0.3864055

 Broyden mixing:
  rms(total) = 0.23157E+00    rms(broyden)= 0.23155E+00
  rms(prec ) = 0.34705E+00
  weight for this iteration     100.00

 eigenvalues of (default mixing * dielectric matrix)
  average eigenvalue GAMMA=   0.6613
  1.8876  0.8451  0.8451  0.5559  0.5559  0.1315  0.2015  0.2675

 Free energy of the ion-electron system (eV)
  ---------------------------------------------------
  alpha Z        PSCENC =       534.58056533
  Ewald energy   TEWEN  =     -9337.09740544
  -Hartree energ DENC   =     -2896.23236004
  -exchange      EXHF   =         0.00000000
  -V(xc)+E(xc)   XCENC  =        75.38079559
  PAW double counting   =     12848.45367604   -13191.53505316
  entropy T*S    EENTRO =        -0.00134383
  eigenvalues    EBANDS =       633.73981719
  atomic energy  EATOM  =     11229.46195210
  Solvation  Ediel_sol  =         0.00000000
  ---------------------------------------------------
  free energy    TOTEN  =      -103.24935622 eV

  energy without entropy =     -103.24801240  energy(sigma->0) =     -103.24868431


--------------------------------------------------------------------------------------------------------




--------------------------------------- Iteration      1(  14)  ---------------------------------------


    POTLOK:  cpu time    0.1038: real time    0.1043
    SETDIJ:  cpu time    0.0384: real time    0.0384
    EDDIAG:  cpu time    3.4134: real time    3.4168
  RMM-DIIS:  cpu time   11.5162: real time   11.5262
    ORTHCH:  cpu time    0.6431: real time    0.6437
       DOS:  cpu time    0.0033: real time    0.0033
    CHARGE:  cpu time    0.7253: real time    0.7257
    MIXING:  cpu time    0.0025: real time    0.0025
    --------------------------------------------
      LOOP:  cpu time   16.4460: real time   16.4611

 eigenvalue-minimisations  : 14083
 total energy-change (2. order) :-0.6388231E-02  (-0.8676263E-02)
 number of electron     128.0000298 magnetization      -0.6331871
 augmentation part       67.6786583 magnetization      -0.3075704

 Broyden mixing:
  rms(total) = 0.16806E+00    rms(broyden)= 0.16806E+00
  rms(prec ) = 0.24718E+00
  weight for this iteration     100.00

 eigenvalues of (default mixing * dielectric matrix)
  average eigenvalue GAMMA=   0.6740
  2.0022  0.9358  0.9358  0.6006  0.6006  0.4021  0.1315  0.2025  0.2553

 Free energy of the ion-electron system (eV)
  ---------------------------------------------------
  alpha Z        PSCENC =       534.58056533
  Ewald energy   TEWEN  =     -9337.09740544
  -Hartree energ DENC   =     -2897.23373450
  -exchange      EXHF   =         0.00000000
  -V(xc)+E(xc)   XCENC  =        75.37775358
  PAW double counting   =     12880.94572870   -13224.68303748
  entropy T*S    EENTRO =        -0.00145157
  eigenvalues    EBANDS =       635.39388483
  atomic energy  EATOM  =     11229.46195210
  Solvation  Ediel_sol  =         0.00000000
  ---------------------------------------------------
  free energy    TOTEN  =      -103.25574445 eV

  energy without entropy =     -103.25429288  energy(sigma->0) =     -103.25501867


--------------------------------------------------------------------------------------------------------




--------------------------------------- Iteration      1(  15)  ---------------------------------------


    POTLOK:  cpu time    0.0994: real time    0.0996
    SETDIJ:  cpu time    0.0369: real time    0.0369
    EDDIAG:  cpu time    3.3975: real time    3.4007
  RMM-DIIS:  cpu time   11.1801: real time   11.1895
    ORTHCH:  cpu time    0.6452: real time    0.6457
       DOS:  cpu time    0.0038: real time    0.0039
    CHARGE:  cpu time    0.7239: real time    0.7244
    MIXING:  cpu time    0.0027: real time    0.0027
    --------------------------------------------
      LOOP:  cpu time   16.0895: real time   16.1034

 eigenvalue-minimisations  : 13868
 total energy-change (2. order) : 0.5168472E-02  (-0.3375691E-02)
 number of electron     128.0000298 magnetization      -0.5905176
 augmentation part       67.6769319 magnetization      -0.2407918

 Broyden mixing:
  rms(total) = 0.92801E-01    rms(broyden)= 0.92798E-01
  rms(prec ) = 0.13425E+00
  weight for this iteration     100.00

 eigenvalues of (default mixing * dielectric matrix)
  average eigenvalue GAMMA=   0.7264
  2.1194  1.1823  1.1823  0.6620  0.6620  0.5687  0.1315  0.2023  0.3020  0.2512

 Free energy of the ion-electron system (eV)
  ---------------------------------------------------
  alpha Z        PSCENC =       534.58056533
  Ewald energy   TEWEN  =     -9337.09740544
  -Hartree energ DENC   =     -2897.21694549
  -exchange      EXHF   =         0.00000000
  -V(xc)+E(xc)   XCENC  =        75.32960062
  PAW double counting   =     12917.56799618   -13261.64427787
  entropy T*S    EENTRO =        -0.00159268
  eigenvalues    EBANDS =       635.76953127
  atomic energy  EATOM  =     11229.46195210
  Solvation  Ediel_sol  =         0.00000000
  ---------------------------------------------------
  free energy    TOTEN  =      -103.25057598 eV

  energy without entropy =     -103.24898330  energy(sigma->0) =     -103.24977964


--------------------------------------------------------------------------------------------------------




--------------------------------------- Iteration      1(  16)  ---------------------------------------


    POTLOK:  cpu time    0.0997: real time    0.0998
    SETDIJ:  cpu time    0.0386: real time    0.0386
    EDDIAG:  cpu time    3.4305: real time    3.4337
  RMM-DIIS:  cpu time   11.3666: real time   11.3764
    ORTHCH:  cpu time    0.6431: real time    0.6437
       DOS:  cpu time    0.0037: real time    0.0038
    CHARGE:  cpu time    0.7225: real time    0.7230
    MIXING:  cpu time    0.0028: real time    0.0028
    --------------------------------------------
      LOOP:  cpu time   16.3076: real time   16.3218

 eigenvalue-minimisations  : 13892
 total energy-change (2. order) : 0.9797594E-03  (-0.1297978E-02)
 number of electron     128.0000298 magnetization      -0.6387172
 augmentation part       67.7185564 magnetization      -0.2939334

 Broyden mixing:
  rms(total) = 0.53187E-01    rms(broyden)= 0.53186E-01
  rms(prec ) = 0.65337E-01
  weight for this iteration     100.00

 eigenvalues of (default mixing * dielectric matrix)
  average eigenvalue GAMMA=   0.7579
  2.2724  1.5234  0.8410  0.8410  0.6820  0.6820  0.6141  0.1315  0.2023  0.2959
  0.2511

 Free energy of the ion-electron system (eV)
  ---------------------------------------------------
  alpha Z        PSCENC =       534.58056533
  Ewald energy   TEWEN  =     -9337.09740544
  -Hartree energ DENC   =     -2896.28781429
  -exchange      EXHF   =         0.00000000
  -V(xc)+E(xc)   XCENC  =        75.26669233
  PAW double counting   =     12939.93087831   -13283.95479498
  entropy T*S    EENTRO =        -0.00168253
  eigenvalues    EBANDS =       634.85201296
  atomic energy  EATOM  =     11229.46195210
  Solvation  Ediel_sol  =         0.00000000
  ---------------------------------------------------
  free energy    TOTEN  =      -103.24959622 eV

  energy without entropy =     -103.24791369  energy(sigma->0) =     -103.24875496


--------------------------------------------------------------------------------------------------------




--------------------------------------- Iteration      1(  17)  ---------------------------------------


    POTLOK:  cpu time    0.0993: real time    0.0994
    SETDIJ:  cpu time    0.0369: real time    0.0370
    EDDIAG:  cpu time    3.4348: real time    3.4381
  RMM-DIIS:  cpu time   11.8142: real time   11.8245
    ORTHCH:  cpu time    0.6433: real time    0.6440
       DOS:  cpu time    0.0038: real time    0.0038
    CHARGE:  cpu time    0.7312: real time    0.7318
    MIXING:  cpu time    0.0030: real time    0.0030
    --------------------------------------------
      LOOP:  cpu time   16.7667: real time   16.7815

 eigenvalue-minimisations  : 14604
 total energy-change (2. order) :-0.1341864E-02  (-0.5310781E-03)
 number of electron     128.0000298 magnetization      -0.6850389
 augmentation part       67.7101315 magnetization      -0.3384595

 Broyden mixing:
  rms(total) = 0.37886E-01    rms(broyden)= 0.37885E-01
  rms(prec ) = 0.52399E-01
  weight for this iteration     100.00

 eigenvalues of (default mixing * dielectric matrix)
  average eigenvalue GAMMA=   0.7532
  2.3364  1.6496  0.9036  0.9036  0.7038  0.7038  0.5999  0.1315  0.2022  0.3509
  0.3011  0.2521

 Free energy of the ion-electron system (eV)
  ---------------------------------------------------
  alpha Z        PSCENC =       534.58056533
  Ewald energy   TEWEN  =     -9337.09740544
  -Hartree energ DENC   =     -2896.28820575
  -exchange      EXHF   =         0.00000000
  -V(xc)+E(xc)   XCENC  =        75.38857246
  PAW double counting   =     12953.09411121   -13297.27892171
  entropy T*S    EENTRO =        -0.00164219
  eigenvalues    EBANDS =       634.89003591
  atomic energy  EATOM  =     11229.46195210
  Solvation  Ediel_sol  =         0.00000000
  ---------------------------------------------------
  free energy    TOTEN  =      -103.25093808 eV

  energy without entropy =     -103.24929590  energy(sigma->0) =     -103.25011699


--------------------------------------------------------------------------------------------------------




--------------------------------------- Iteration      1(  18)  ---------------------------------------


    POTLOK:  cpu time    0.1114: real time    0.1122
    SETDIJ:  cpu time    0.0383: real time    0.0384
    EDDIAG:  cpu time    3.4557: real time    3.4607
  RMM-DIIS:  cpu time   11.0725: real time   11.0875
    ORTHCH:  cpu time    0.6417: real time    0.6424
       DOS:  cpu time    0.0038: real time    0.0040
    CHARGE:  cpu time    0.7342: real time    0.7353
    MIXING:  cpu time    0.0032: real time    0.0032
    --------------------------------------------
      LOOP:  cpu time   16.0610: real time   16.0838

 eigenvalue-minimisations  : 13676
 total energy-change (2. order) : 0.1034581E-03  (-0.1758557E-03)
 number of electron     128.0000298 magnetization      -0.7186117
 augmentation part       67.7318838 magnetization      -0.3701032

 Broyden mixing:
  rms(total) = 0.16431E-01    rms(broyden)= 0.16431E-01
  rms(prec ) = 0.21300E-01
  weight for this iteration     100.00

 eigenvalues of (default mixing * dielectric matrix)
  average eigenvalue GAMMA=   0.7957
  2.3876  2.0317  1.0539  1.0539  0.7110  0.7110  0.6095  0.6095  0.1315  0.2022
  0.2525  0.3035  0.2858

 Free energy of the ion-electron system (eV)
  ---------------------------------------------------
[...]
     79      11.1159      0.00000
     80      11.6368      0.00000
     81      11.6680      0.00000
     82      11.7820      0.00000
     83      11.8221      0.00000
     84      12.1379      0.00000


--------------------------------------------------------------------------------------------------------


 soft charge-density along one line, spin component           1
         0         1         2         3         4         5         6         7         8         9
 total charge-density along one line

 soft charge-density along one line, spin component           2
         0         1         2         3         4         5         6         7         8         9
 total charge-density along one line

 pseudopotential strength for first ion, spin component:           1
 -1.561   0.013   0.039  -0.013   0.000  -2.201   0.013   0.038
  0.013  -1.545   0.005   0.006  -0.007   0.013  -2.185   0.005
  0.039   0.005  -1.518  -0.005   0.000   0.038   0.005  -2.159
 -0.013   0.006  -0.005  -1.545  -0.007  -0.013   0.006  -0.005
  0.000  -0.007   0.000  -0.007  -1.537   0.000  -0.006   0.000
 -2.201   0.013   0.038  -0.013   0.000  -2.770   0.012   0.036
  0.013  -2.185   0.005   0.006  -0.006   0.012  -2.755   0.005
  0.038   0.005  -2.159  -0.005   0.000   0.036   0.005  -2.730
 -0.013   0.006  -0.005  -2.185  -0.006  -0.012   0.006  -0.005
  0.000  -0.006   0.000  -0.006  -2.177   0.000  -0.006   0.000
  0.006  -0.001  -0.002   0.001   0.000   0.006  -0.001  -0.002
  0.010  -0.002  -0.004   0.002   0.000   0.010  -0.002  -0.004
 -0.002  -0.007  -0.001   0.003  -0.001  -0.002  -0.007  -0.001
  0.003   0.003  -0.009  -0.003   0.000   0.002   0.002  -0.009
  0.002   0.003   0.001  -0.007  -0.001   0.002   0.002   0.001
 -0.003  -0.007  -0.001   0.004  -0.002  -0.003  -0.007  -0.001
  0.004   0.003  -0.009  -0.003   0.000   0.004   0.003  -0.009
  0.003   0.004   0.001  -0.007  -0.002   0.003   0.004   0.001
 pseudopotential strength for first ion, spin component:           2
 -1.586   0.007  -0.042  -0.007   0.000  -2.224   0.006  -0.040
  0.007  -1.572  -0.015  -0.011   0.028   0.006  -2.211  -0.015
 -0.042  -0.015  -1.558   0.015   0.000  -0.040  -0.015  -2.197
 -0.007  -0.011   0.015  -1.572   0.028  -0.006  -0.011   0.015
  0.000   0.028   0.000   0.028  -1.575   0.000   0.026   0.000
 -2.224   0.006  -0.040  -0.006   0.000  -2.793   0.006  -0.038
  0.006  -2.211  -0.015  -0.011   0.026   0.006  -2.780  -0.014
 -0.040  -0.015  -2.197   0.015   0.000  -0.038  -0.014  -2.766
 -0.006  -0.011   0.015  -2.211   0.026  -0.006  -0.011   0.014
  0.000   0.026   0.000   0.026  -2.214   0.000   0.025   0.000
 -0.009   0.006  -0.002  -0.006   0.000  -0.008   0.006  -0.002
 -0.016   0.011  -0.004  -0.011   0.000  -0.015   0.010  -0.003
  0.002  -0.007  -0.000  -0.002  -0.001   0.002  -0.007  -0.000
 -0.002  -0.002  -0.009   0.002   0.000  -0.002  -0.002  -0.009
 -0.002  -0.002   0.000  -0.007  -0.001  -0.002  -0.002   0.000
  0.002  -0.007  -0.000  -0.002  -0.000   0.002  -0.007  -0.000
 -0.002  -0.002  -0.009   0.002   0.000  -0.002  -0.002  -0.009
 -0.002  -0.002   0.000  -0.007  -0.000  -0.002  -0.002   0.000
 total augmentation occupancy for first ion, spin component:           1
  1.934  -0.002   0.043   0.002   0.000  -0.493   0.007  -0.039  -0.007   0.000  -0.074   0.030  -0.006   0.044   0.006   0.001
 -0.002   2.007  -0.004   0.069   0.051   0.007  -0.541   0.003  -0.071  -0.035  -0.026  -0.001   0.035   0.013   0.043  -0.013
  0.043  -0.004   2.771   0.004  -0.000  -0.039   0.003  -1.053  -0.003  -0.000   0.008   0.004  -0.020  -0.030   0.020   0.001
  0.002   0.069   0.004   2.007   0.051  -0.007  -0.071  -0.003  -0.541  -0.035   0.026   0.001   0.043  -0.013   0.035  -0.009
 -0.000   0.051  -0.000   0.051   2.774  -0.000  -0.035   0.000  -0.035  -1.057  -0.000   0.000  -0.031   0.000  -0.031   0.001
 -0.493   0.007  -0.039  -0.007   0.000   0.826  -0.006   0.024   0.006   0.000   0.046  -0.020   0.012  -0.026  -0.012  -0.001
  0.007  -0.541   0.003  -0.071  -0.035  -0.006   0.858  -0.003   0.070   0.025   0.016   0.001  -0.009  -0.015  -0.025   0.002
 -0.039   0.003  -1.053  -0.003   0.000   0.024  -0.003   1.112   0.003  -0.000  -0.002  -0.004   0.017   0.034  -0.017  -0.001
 -0.007  -0.071  -0.003  -0.541  -0.035   0.006   0.070   0.003   0.858   0.025  -0.016  -0.001  -0.025   0.015  -0.009   0.006
  0.000  -0.035   0.000  -0.035  -1.057   0.000   0.025  -0.000   0.025   1.108   0.000  -0.000   0.027  -0.000   0.027  -0.002
 -0.074  -0.026   0.008   0.026  -0.000   0.046   0.016  -0.002  -0.016  -0.000   2.136  -0.288  -0.018   0.039   0.018   0.002
  0.030  -0.001   0.004   0.001   0.000  -0.020   0.001  -0.004  -0.001   0.000  -0.288   0.049   0.003   0.004  -0.003  -0.000
 -0.006   0.035  -0.020   0.043  -0.031   0.012  -0.009   0.017  -0.025   0.027  -0.018   0.003   0.257   0.000   0.002  -0.027
  0.044   0.013  -0.030  -0.013  -0.000  -0.026  -0.015   0.034   0.015   0.000   0.039   0.004   0.000   0.260  -0.000  -0.000
  0.006   0.043   0.020   0.035  -0.031  -0.012  -0.025  -0.017  -0.009   0.027   0.018  -0.003   0.002  -0.000   0.257  -0.002
  0.001  -0.013   0.001  -0.009   0.001  -0.001   0.002  -0.001   0.006  -0.002   0.002  -0.000  -0.027  -0.000  -0.002   0.003
 -0.009  -0.001  -0.008   0.001   0.000   0.006   0.001  -0.005  -0.001  -0.000  -0.004  -0.001  -0.000  -0.027   0.000  -0.000
 -0.001  -0.009  -0.001  -0.013   0.001   0.001   0.006   0.001   0.002  -0.002  -0.002   0.000  -0.002   0.000  -0.027   0.000
 total augmentation occupancy for first ion, spin component:           2
 -0.017   0.065  -0.393  -0.065  -0.000   0.010  -0.063   0.219   0.063  -0.000  -0.126   0.003   0.037  -0.081  -0.037  -0.001
  0.065  -0.039  -0.103   0.145   0.120  -0.063   0.023   0.059  -0.151  -0.054   0.036  -0.002  -0.000  -0.043  -0.088   0.000
 -0.393  -0.103  -0.101   0.103   0.000   0.222   0.059   0.060  -0.059   0.000   0.001  -0.002  -0.016  -0.001   0.016   0.000
 -0.065   0.145   0.103  -0.039   0.120   0.063  -0.151  -0.059   0.023  -0.054  -0.036   0.002  -0.088   0.043  -0.000   0.003
 -0.000   0.120   0.000   0.120  -0.081   0.000  -0.054   0.000  -0.054   0.045   0.000  -0.000  -0.012   0.000  -0.012  -0.001
  0.010  -0.063   0.222   0.063   0.000  -0.005   0.055  -0.104  -0.055   0.000   0.084  -0.015  -0.021   0.061   0.021   0.003
 -0.063   0.023   0.059  -0.151  -0.054   0.055  -0.012  -0.030   0.139   0.013  -0.020   0.005   0.000   0.027   0.065  -0.000
  0.219   0.059   0.060  -0.059   0.000  -0.104  -0.030  -0.032   0.030  -0.000   0.000   0.001   0.014   0.000  -0.014  -0.001
  0.063  -0.151  -0.059   0.023  -0.054  -0.055   0.139   0.030  -0.012   0.013   0.020  -0.005   0.065  -0.027   0.000  -0.005
 -0.000  -0.054   0.000  -0.054   0.045   0.000   0.013  -0.000   0.013  -0.022   0.000   0.000   0.013   0.000   0.013   0.000
 -0.126   0.036   0.001  -0.036   0.000   0.084  -0.020   0.000   0.020   0.000  -0.006  -0.001  -0.006   0.001   0.006  -0.001
  0.003  -0.002  -0.002   0.002  -0.000  -0.015   0.005   0.001  -0.005   0.000  -0.001  -0.000  -0.002  -0.000   0.002   0.000
  0.037  -0.000  -0.016  -0.088  -0.012  -0.021   0.000   0.014   0.065   0.013  -0.006  -0.002  -0.004  -0.005   0.017   0.000
 -0.081  -0.043  -0.001   0.043  -0.000   0.061   0.027   0.000  -0.027  -0.000   0.001  -0.000  -0.005  -0.003   0.005   0.001
 -0.037  -0.088   0.016  -0.000  -0.012   0.021   0.065  -0.014   0.000   0.013   0.006   0.002   0.017   0.005  -0.004  -0.002
 -0.001   0.000   0.000   0.003  -0.001   0.003  -0.000  -0.001  -0.005   0.000  -0.001   0.000   0.000   0.001  -0.002  -0.000
  0.004   0.002   0.001  -0.002   0.000  -0.006  -0.003  -0.000   0.003  -0.000  -0.000   0.000   0.001   0.000  -0.001  -0.000
  0.001   0.003  -0.000   0.000  -0.001  -0.003  -0.005   0.001  -0.000   0.000   0.001  -0.000  -0.002  -0.001   0.000   0.000


------------------------ aborting loop because EDIFF is reached ----------------------------------------





 total charge     

# of ion       s       p       d       tot
------------------------------------------
    1        0.473   0.425   8.380   9.278
    2        0.473   0.426   8.374   9.273
    3        0.471   0.424   8.405   9.300
    4        0.472   0.426   8.390   9.288
    5        0.472   0.426   8.390   9.288
    6        0.471   0.424   8.405   9.300
    7        0.473   0.426   8.374   9.273
    8        0.473   0.425   8.380   9.278
    9        0.331   0.320   4.947   5.598
   10        0.309   0.286   4.940   5.535
   11        0.336   0.341   4.984   5.661
   12        0.356   0.352   4.947   5.656
   13        0.337   0.344   4.903   5.584
   14        0.339   0.330   4.872   5.542
   15        1.255   1.766   0.319   3.341
   16        1.259   1.789   0.321   3.370
--------------------------------------------------
tot          8.300   8.930  97.334 114.564



 magnetization (x)

# of ion       s       p       d       tot
------------------------------------------
    1       -0.004  -0.010  -0.036  -0.051
    2       -0.002  -0.003  -0.024  -0.030
    3       -0.002  -0.005  -0.031  -0.038
    4       -0.005  -0.012  -0.052  -0.068
    5       -0.005  -0.012  -0.052  -0.068
    6       -0.002  -0.005  -0.031  -0.038
    7       -0.002  -0.003  -0.024  -0.030
    8       -0.004  -0.010  -0.036  -0.051
    9       -0.024  -0.041  -3.475  -3.540
   10        0.037   0.020   3.572   3.629
   11        0.034   0.035   3.351   3.421
   12       -0.035  -0.027  -3.453  -3.516
   13        0.035   0.045   3.327   3.406
   14       -0.035  -0.070  -3.517  -3.622
   15       -0.014   0.035  -0.001   0.021
   16       -0.020  -0.028   0.005  -0.043
--------------------------------------------------
tot         -0.049  -0.091  -0.478  -0.618

    CHARGE:  cpu time    0.7291: real time    0.7298
    FORLOC:  cpu time    0.0073: real time    0.0073
    FORNL :  cpu time    5.0936: real time    5.1001
    STRESS:  cpu time   15.3075: real time   15.3270
    FORCOR:  cpu time    0.1017: real time    0.1017
    FORHAR:  cpu time    0.0161: real time    0.0162
    MIXING:  cpu time    0.0038: real time    0.0038
    OFIELD:  cpu time    0.0000: real time    0.0000

  FORCE on cell =-STRESS in cart. coord.  units (eV):
  Direction    XX          YY          ZZ          XY          YZ          ZX
  --------------------------------------------------------------------------------------
  Alpha Z   534.58057   534.58057   534.58057
  Ewald   -3032.49439 -3032.49439 -3272.13709    -0.00000     0.00000     0.00000
  Hartree  1039.53334  1039.53334   816.84347    -0.00000    -0.00000    -0.00000
  E(xc)    -670.82445  -670.82445  -671.27550    -0.00000    -0.00000     0.00000
  Local    -365.84437  -365.84437    91.39783    -0.00000     0.00000     0.00000
  n-local  -148.18248  -145.39763  -145.82537    -0.28594    -0.95061     0.13273
  augment  1577.96228  1577.96228  1581.75819    -0.00000    -0.00000    -0.00000
  Kinetic  1055.17662  1069.01815  1066.70714     1.85292     0.50002     0.98835
  Fock        0.00000     0.00000     0.00000     0.00000     0.00000     0.00000
  -------------------------------------------------------------------------------------
  Total      -1.77970    -1.77970     2.04924    -0.00000     0.00000     0.00000
  in kB     -13.54640   -13.54640    15.59803    -0.00000     0.00000     0.00000
  external pressure =       -3.83 kB  Pullay stress =        0.00 kB


 VOLUME and BASIS-vectors are now :
 -----------------------------------------------------------------------------
  energy-cutoff  :      550.00
  volume of cell :      210.49
      direct lattice vectors                 reciprocal lattice vectors
     5.948553844  0.000000000  0.000000000     0.168108086  0.000000000  0.000000000
     0.000000000  5.948553844  0.000000000     0.000000000  0.168108086  0.000000000
     0.000000000  0.000000000  5.948553844     0.000000000  0.000000000  0.168108086

  length of vectors
     5.948553844  5.948553844  5.948553844     0.168108086  0.168108086  0.168108086


 FORCES acting on ions
    electron-ion (+dipol)            ewald-force                    non-local-force                 convergence-correction
 -----------------------------------------------------------------------------------------------
   0.336E+02 -.336E+02 0.147E+03   -.337E+02 0.337E+02 -.145E+03   0.590E-01 -.590E-01 -.259E+01   0.121E-01 -.121E-01 -.141E-01
   -.336E+02 -.336E+02 0.147E+03   0.337E+02 0.337E+02 -.145E+03   -.590E-01 -.590E-01 -.259E+01   -.121E-01 -.121E-01 -.141E-01
   0.336E+02 0.336E+02 0.147E+03   -.337E+02 -.337E+02 -.145E+03   0.590E-01 0.590E-01 -.259E+01   0.121E-01 0.121E-01 -.141E-01
   -.336E+02 0.336E+02 0.147E+03   0.337E+02 -.337E+02 -.145E+03   -.590E-01 0.590E-01 -.259E+01   -.121E-01 0.121E-01 -.141E-01
   0.336E+02 -.336E+02 -.147E+03   -.337E+02 0.337E+02 0.145E+03   0.590E-01 -.590E-01 0.259E+01   0.121E-01 -.121E-01 0.141E-01
   -.336E+02 -.336E+02 -.147E+03   0.337E+02 0.337E+02 0.145E+03   -.590E-01 -.590E-01 0.259E+01   -.121E-01 -.121E-01 0.141E-01
   0.336E+02 0.336E+02 -.147E+03   -.337E+02 -.337E+02 0.145E+03   0.590E-01 0.590E-01 0.259E+01   0.121E-01 0.121E-01 0.141E-01
   -.336E+02 0.336E+02 -.147E+03   0.337E+02 -.337E+02 0.145E+03   -.590E-01 0.590E-01 0.259E+01   -.121E-01 0.121E-01 0.141E-01
   0.174E-12 0.160E-13 -.617E-12   -.117E-13 -.283E-13 -.168E-13   0.000E+00 0.000E+00 0.000E+00   -.366E-14 0.206E-13 0.217E-13
   0.643E-14 0.197E-12 -.369E-13   -.157E-12 -.626E-13 -.256E-14   0.000E+00 0.000E+00 0.000E+00   0.468E-14 -.285E-13 0.146E-13
   -.345E-14 -.274E-13 0.171E-12   -.185E-12 0.246E-13 -.243E-13   0.000E+00 0.000E+00 0.000E+00   -.357E-13 0.167E-13 0.439E-14
   0.169E-12 -.284E-13 0.141E-11   0.573E-13 -.603E-13 -.141E-13   0.000E+00 0.000E+00 0.000E+00   0.469E-13 0.315E-13 -.257E-13
   0.168E-12 0.795E-13 0.744E-12   0.444E-13 -.551E-13 -.100E-13   0.000E+00 0.000E+00 0.000E+00   0.530E-13 -.244E-13 -.264E-13
   0.140E-14 0.187E-12 0.167E-12   -.458E-13 -.406E-13 -.140E-13   0.000E+00 0.000E+00 0.000E+00   -.370E-13 -.140E-13 0.702E-14
   0.127E-13 -.115E-13 -.556E-14   -.496E-15 -.366E-14 0.539E-14   0.000E+00 0.000E+00 0.000E+00   -.508E-14 0.707E-14 0.176E-14
   -.416E-13 -.531E-12 0.360E-13   0.796E-14 0.262E-13 -.527E-14   0.000E+00 0.000E+00 0.000E+00   0.545E-14 -.839E-14 0.285E-14
 -----------------------------------------------------------------------------------------------
   0.128E-10 -.105E-10 0.558E-10   -.207E-13 0.417E-13 0.361E-14   0.208E-16 0.208E-16 0.000E+00   0.405E-12 0.177E-12 -.328E-12


 POSITION                                       TOTAL-FORCE (eV/Angst)
 -----------------------------------------------------------------------------------
      1.52241      1.45187      1.56301        -0.004420      0.004420      0.004879
      4.42614      1.45187      1.56301         0.004420      0.004420      0.004879
      1.52241      4.49669      1.56301        -0.004420     -0.004420      0.004879
      4.42614      4.49669      1.56301         0.004420     -0.004420      0.004879
      1.52241      1.45187      4.38554        -0.004420      0.004420     -0.004879
      4.42614      1.45187      4.38554         0.004420      0.004420     -0.004879
      1.52241      4.49669      4.38554        -0.004420     -0.004420     -0.004879
      4.42614      4.49669      4.38554         0.004420     -0.004420     -0.004879
      2.97428      0.00000      0.00000        -0.000000      0.000000      0.000000
      0.00000      2.97428      0.00000        -0.000000      0.000000      0.000000
      0.00000      0.00000      2.97428        -0.000000      0.000000      0.000000
      2.97428      0.00000      2.97428        -0.000000      0.000000      0.000000
      2.97428      2.97428      2.97428        -0.000000      0.000000      0.000000
      0.00000      2.97428      2.97428        -0.000000      0.000000      0.000000
      0.00000      0.00000      0.00000        -0.000000      0.000000      0.000000
      2.97428      2.97428      0.00000        -0.000000      0.000000      0.000000
 -----------------------------------------------------------------------------------
    total drift:                                0.000000     -0.000000      0.000000


--------------------------------------------------------------------------------------------------------



  FREE ENERGIE OF THE ION-ELECTRON SYSTEM (eV)
  ---------------------------------------------------
  free  energy   TOTEN  =      -103.25079204 eV

  energy  without entropy=     -103.24927712  energy(sigma->0) =     -103.25003458



--------------------------------------------------------------------------------------------------------


    POTLOK:  cpu time    0.1374: real time    0.1375


--------------------------------------------------------------------------------------------------------




--------------------------------------------------------------------------------------------------------


  
 reached required accuracy - stopping structural energy minimisation
     LOOP+:  cpu time  403.4513: real time  404.0400
    4ORBIT:  cpu time    0.0000: real time    0.0000



 total charge     

# of ion       s       p       d       tot
------------------------------------------
    1        0.473   0.425   8.380   9.278
    2        0.473   0.426   8.374   9.273
    3        0.471   0.424   8.405   9.300
    4        0.472   0.426   8.390   9.288
    5        0.472   0.426   8.390   9.288
    6        0.471   0.424   8.405   9.300
    7        0.473   0.426   8.374   9.273
    8        0.473   0.425   8.380   9.278
    9        0.331   0.320   4.947   5.598
   10        0.309   0.286   4.940   5.535
   11        0.336   0.341   4.984   5.661
   12        0.356   0.352   4.947   5.656
   13        0.337   0.344   4.903   5.584
   14        0.339   0.330   4.872   5.542
   15        1.255   1.766   0.319   3.341
   16        1.259   1.789   0.321   3.370
--------------------------------------------------
tot          8.300   8.930  97.334 114.564



 magnetization (x)

# of ion       s       p       d       tot
------------------------------------------
    1       -0.004  -0.010  -0.036  -0.051
    2       -0.002  -0.003  -0.024  -0.030
    3       -0.002  -0.005  -0.031  -0.038
    4       -0.005  -0.012  -0.052  -0.068
    5       -0.005  -0.012  -0.052  -0.068
    6       -0.002  -0.005  -0.031  -0.038
    7       -0.002  -0.003  -0.024  -0.030
    8       -0.004  -0.010  -0.036  -0.051
    9       -0.024  -0.041  -3.475  -3.540
   10        0.037   0.020   3.572   3.629
   11        0.034   0.035   3.351   3.421
   12       -0.035  -0.027  -3.453  -3.516
   13        0.035   0.045   3.327   3.406
   14       -0.035  -0.070  -3.517  -3.622
   15       -0.014   0.035  -0.001   0.021
   16       -0.020  -0.028   0.005  -0.043
--------------------------------------------------
tot         -0.049  -0.091  -0.478  -0.618


 total amount of memory used by VASP MPI-rank0   103235. kBytes
=======================================================================

   base      :      30000. kBytes
   nonlr-proj:       6836. kBytes
   fftplans  :       1269. kBytes
   grid      :       6573. kBytes
   one-center:        497. kBytes
   wavefun   :      58060. kBytes

  
  
 General timing and accounting informations for this job:
 ========================================================
  
                  Total CPU time used (sec):      414.110
                            User time (sec):      393.300
                          System time (sec):       20.809
                         Elapsed time (sec):      415.277
  
                   Maximum memory used (kb):      137576.
                   Average memory used (kb):           0.
  
                          Minor page faults:      7628559
                          Major page faults:            9
                 Voluntary context switches:         2538
