 vasp.5.4.4.18Apr17-6-g9f103f2a35 (build May 21 2018 20:56:50) complex           
 executed on             LinuxGNU date 2021.10.15  15:43:05
 running on   12 total cores
 distrk:  each k-point on   12 cores,    1 groups
 distr:  one band on NCORES_PER_BAND=   1 cores,   12 groups


--------------------------------------------------------------------------------------------------------


 INCAR:
 POTCAR:    PAW_PBE Ni 02Aug2007                  
 POTCAR:    PAW_PBE Mn 06Sep2000                  
 POTCAR:    PAW_PBE In 08Apr2002                  

 ----------------------------------------------------------------------------- 
|                                                                             |
|           W    W    AA    RRRRR   N    N  II  N    N   GGGG   !!!           |
|           W    W   A  A   R    R  NN   N  II  NN   N  G    G  !!!           |
|           W    W  A    A  R    R  N N  N  II  N N  N  G       !!!           |
|           W WW W  AAAAAA  RRRRR   N  N N  II  N  N N  G  GGG   !            |
|           WW  WW  A    A  R   R   N   NN  II  N   NN  G    G                |
|           W    W  A    A  R    R  N    N  II  N    N   GGGG   !!!           |
|                                                                             |
|      For optimal performance we recommend to set                            |
|        NCORE= 4 - approx SQRT( number of cores)                             |
|      NCORE specifies how many cores store one orbital (NPAR=cpu/NCORE).     |
|      This setting can  greatly improve the performance of VASP for DFT.     |
|      The default,   NCORE=1            might be grossly inefficient         |
|      on modern multi-core architectures or massively parallel machines.     |
|      Do your own testing !!!!                                               |
|      Unfortunately you need to use the default for GW and RPA calculations. |
|      (for HF NCORE is supported but not extensively tested yet)             |
|                                                                             |
 ----------------------------------------------------------------------------- 

 POTCAR:    PAW_PBE Ni 02Aug2007                  
   VRHFIN =Ni:                                                                  
   LEXCH  = PE                                                                  
   EATOM  =  1077.6739 eV,   79.2068 Ry                                         
                                                                                
   TITEL  = PAW_PBE Ni 02Aug2007                                                
   LULTRA =        F    use ultrasoft PP ?                                      
   IUNSCR =        1    unscreen: 0-lin 1-nonlin 2-no                           
   RPACOR =    2.000    partial core radius                                     
   POMASS =   58.690; ZVAL   =   10.000    mass and valenz                      
   RCORE  =    2.300    outmost cutoff radius                                   
   RWIGS  =    2.430; RWIGS  =    1.286    wigner-seitz radius (au A)           
   ENMAX  =  269.532; ENMIN  =  202.149 eV                                      
   RCLOC  =    1.201    cutoff for local pot                                    
   LCOR   =        T    correct aug charges                                     
   LPAW   =        T    paw PP                                                  
   EAUG   =  544.565                                                            
   DEXC   =    0.000                                                            
   RMAX   =    2.357    core radius for proj-oper                               
   RAUG   =    1.300    factor for augmentation sphere                          
   RDEP   =    2.390    radius for radial grids                                 
   RDEPT  =    1.838    core radius for aug-charge                              
                                                                                
   Atomic configuration                                                         
    9 entries                                                                   
     n  l   j            E        occ.                                          
     1  0  0.50     -8206.4253   2.0000                                         
     2  0  0.50      -976.1748   2.0000                                         
     2  1  1.50      -839.0571   6.0000                                         
     3  0  0.50      -105.9991   2.0000                                         
     3  1  1.50       -66.4603   6.0000                                         
     3  2  2.50        -4.6458   9.0000                                         
     4  0  0.50        -4.4926   1.0000                                         
     4  1  1.50        -4.0817   0.0000                                         
     4  3  2.50        -1.3606   0.0000                                         
   Description                                                                  
     l       E           TYP  RCUT    TYP  RCUT                                 
     2     -4.6457903     23  2.300                                             
     2     -6.0063729     23  2.300                                             
     0     -4.4925590     23  2.300                                             
     0      5.0102601     23  2.300                                             
     1     -2.7211652     23  2.300                                             
     1     16.5183231     23  2.300                                             
  local pseudopotential read in
  partial core-charges read in
  partial kinetic energy density read in
  atomic valenz-charges read in
  non local Contribution for L=           2  read in
    real space projection operators read in
  non local Contribution for L=           2  read in
    real space projection operators read in
  non local Contribution for L=           0  read in
    real space projection operators read in
  non local Contribution for L=           0  read in
    real space projection operators read in
  non local Contribution for L=           1  read in
    real space projection operators read in
  non local Contribution for L=           1  read in
    real space projection operators read in
    PAW grid and wavefunctions read in

   number of l-projection  operators is LMAX  =           6
   number of lm-projection operators is LMMAX =          18

 POTCAR:    PAW_PBE Mn 06Sep2000                  
   VRHFIN =Mn: d6 s1                                                            
   LEXCH  = PE                                                                  
   EATOM  =   416.7541 eV,   30.6306 Ry                                         
                                                                                
   TITEL  = PAW_PBE Mn 06Sep2000                                                
   LULTRA =        F    use ultrasoft PP ?                                      
   IUNSCR =        1    unscreen: 0-lin 1-nonlin 2-no                           
   RPACOR =    2.000    partial core radius                                     
   POMASS =   54.938; ZVAL   =    7.000    mass and valenz                      
   RCORE  =    2.300    outmost cutoff radius                                   
   RWIGS  =    2.500; RWIGS  =    1.323    wigner-seitz radius (au A)           
   ENMAX  =  269.864; ENMIN  =  202.398 eV                                      
   RCLOC  =    1.725    cutoff for local pot                                    
   LCOR   =        T    correct aug charges                                     
   LPAW   =        T    paw PP                                                  
   EAUG   =  500.711                                                            
   DEXC   =    0.000                                                            
   RMAX   =    2.343    core radius for proj-oper                               
   RAUG   =    1.300    factor for augmentation sphere                          
   RDEP   =    2.338    radius for radial grids                                 
   RDEPT  =    1.911    core radius for aug-charge                              
                                                                                
   Atomic configuration                                                         
    9 entries                                                                   
     n  l   j            E        occ.                                          
     1  0  0.50     -6424.8288   2.0000                                         
     2  0  0.50      -739.1154   2.0000                                         
     2  1  1.50      -625.3949   6.0000                                         
     3  0  0.50       -81.6100   2.0000                                         
     3  1  1.50       -50.4667   6.0000                                         
     3  2  2.50        -3.3745   6.0000                                         
     4  0  0.50        -4.1331   1.0000                                         
     4  1  0.50        -4.0817   0.0000                                         
     4  3  2.50        -1.3606   0.0000                                         
   Description                                                                  
     l       E           TYP  RCUT    TYP  RCUT                                 
     2     -3.3744664     23  2.300                                             
     2     -4.7350490     23  2.300                                             
     0     -4.1331408     23  2.300                                             
     0      7.6656614     23  2.300                                             
     1     -2.7211652     23  2.300                                             
     1     20.4087390     23  2.300                                             
  local pseudopotential read in
  partial core-charges read in
  partial kinetic energy density read in
  atomic valenz-charges read in
  non local Contribution for L=           2  read in
    real space projection operators read in
  non local Contribution for L=           2  read in
    real space projection operators read in
  non local Contribution for L=           0  read in
    real space projection operators read in
  non local Contribution for L=           0  read in
    real space projection operators read in
  non local Contribution for L=           1  read in
    real space projection operators read in
  non local Contribution for L=           1  read in
    real space projection operators read in
    PAW grid and wavefunctions read in

   number of l-projection  operators is LMAX  =           6
   number of lm-projection operators is LMMAX =          18

 POTCAR:    PAW_PBE In 08Apr2002                  
   VRHFIN =In: s2p1                                                             
   LEXCH  = PE                                                                  
   EATOM  =    53.7908 eV,    3.9535 Ry                                         
                                                                                
   TITEL  = PAW_PBE In 08Apr2002                                                
   LULTRA =        F    use ultrasoft PP ?                                      
   IUNSCR =        1    unscreen: 0-lin 1-nonlin 2-no                           
   RPACOR =    2.400    partial core radius                                     
   POMASS =  114.820; ZVAL   =    3.000    mass and valenz                      
   RCORE  =    3.100    outmost cutoff radius                                   
   RWIGS  =    3.170; RWIGS  =    1.677    wigner-seitz radius (au A)           
   ENMAX  =   95.934; ENMIN  =   71.951 eV                                      
   ICORE  =        3    local potential                                         
   LCOR   =        T    correct aug charges                                     
   LPAW   =        T    paw PP                                                  
   EAUG   =  237.125                                                            
   DEXC   =    0.000                                                            
   RMAX   =    3.168    core radius for proj-oper                               
   RAUG   =    1.300    factor for augmentation sphere                          
   RDEP   =    3.187    radius for radial grids                                 
   RDEPT  =    2.711    core radius for aug-charge                              
                                                                                
   Atomic configuration                                                         
   13 entries                                                                   
     n  l   j            E        occ.                                          
     1  0  0.50    -27747.9169   2.0000                                         
     2  0  0.50     -4154.4438   2.0000                                         
     2  1  1.50     -3728.4305   6.0000                                         
     3  0  0.50      -788.3680   2.0000                                         
     3  1  1.50      -648.9215   6.0000                                         
     3  2  2.50      -432.5893  10.0000                                         
     4  0  0.50      -119.6363   2.0000                                         
     4  1  1.50       -78.1086   6.0000                                         
     4  2  2.50       -18.6227  10.0000                                         
     5  0  0.50        -8.2107   2.0000                                         
     5  1  0.50        -2.5185   1.0000                                         
     5  2  2.50        -1.3606   0.0000                                         
     4  3  2.50        -2.7212   0.0000                                         
   Description                                                                  
     l       E           TYP  RCUT    TYP  RCUT                                 
     0     -8.2107306     23  3.100                                             
     0     -6.1485975     23  3.100                                             
     1     -2.5184867     23  3.100                                             
     1      3.2427302     23  3.100                                             
     2     -1.3605826     23  3.100                                             
     3     -1.3605826     23  3.100                                             
  local pseudopotential read in
  partial core-charges read in
  partial kinetic energy density read in
  atomic valenz-charges read in
  non local Contribution for L=           0  read in
    real space projection operators read in
  non local Contribution for L=           0  read in
    real space projection operators read in
  non local Contribution for L=           1  read in
    real space projection operators read in
  non local Contribution for L=           1  read in
    real space projection operators read in
  non local Contribution for L=           2  read in
    real space projection operators read in
    PAW grid and wavefunctions read in

   number of l-projection  operators is LMAX  =           5
   number of lm-projection operators is LMMAX =          13

 Optimization of the real space projectors (new method)

 maximal supplied QI-value         = 16.25
 optimisation between [QCUT,QGAM] = [ 11.86, 23.89] = [ 39.41,159.82] Ry 
 Optimized for a Real-space Cutoff    1.33 Angstroem

   l    n(q)    QCUT    max X(q) W(low)/X(q) W(high)/X(q)  e(spline) 
   2      9    11.864    60.317    0.21E-03    0.51E-03    0.25E-06
   2      9    11.864    55.921    0.21E-03    0.51E-03    0.26E-06
   0      9    11.864    51.690    0.22E-03    0.30E-04    0.17E-06
   0      9    11.864    30.015    0.20E-03    0.28E-04    0.15E-06
   1      9    11.864    18.849    0.76E-04    0.33E-03    0.17E-06
   1      9    11.864    14.624    0.60E-04    0.28E-03    0.15E-06
 Optimization of the real space projectors (new method)

 maximal supplied QI-value         = 16.25
 optimisation between [QCUT,QGAM] = [ 11.86, 23.89] = [ 39.41,159.82] Ry 
 Optimized for a Real-space Cutoff    1.36 Angstroem

   l    n(q)    QCUT    max X(q) W(low)/X(q) W(high)/X(q)  e(spline) 
   2      9    11.864   110.144    0.49E-03    0.50E-03    0.21E-06
   2      9    11.864   103.200    0.49E-03    0.51E-03    0.22E-06
   0     10    11.864    68.437    0.12E-03    0.41E-04    0.21E-06
   0     10    11.864    33.971    0.11E-03    0.36E-04    0.19E-06
   1      9    11.864    17.065    0.24E-03    0.26E-03    0.93E-07
   1      9    11.864    12.540    0.19E-03    0.20E-03    0.80E-07
 Optimization of the real space projectors (new method)

 maximal supplied QI-value         = 12.09
 optimisation between [QCUT,QGAM] = [ 11.97, 23.95] = [ 40.14,160.58] Ry 
 Optimized for a Real-space Cutoff    1.63 Angstroem

   l    n(q)    QCUT    max X(q) W(low)/X(q) W(high)/X(q)  e(spline) 
   0     12    11.973   106.980    0.33E-03    0.16E-03    0.25E-05
   0     12    11.973    81.086    0.37E-03    0.18E-03    0.28E-05
   1     11    11.973    53.097    0.22E-03    0.42E-03    0.40E-05
   1     11    11.973    32.621    0.20E-03    0.40E-03    0.37E-05
   2     11    11.973     8.820    0.30E-03    0.17E-03    0.41E-06
  PAW_PBE Ni 02Aug2007                  :
 energy of atom  1       EATOM=-1077.6739
 kinetic energy error for atom=    0.0027 (will be added to EATOM!!)
  PAW_PBE Mn 06Sep2000                  :
 energy of atom  2       EATOM= -416.7541
 kinetic energy error for atom=    0.0022 (will be added to EATOM!!)
  PAW_PBE In 08Apr2002                  :
 energy of atom  3       EATOM=  -53.7908
 kinetic energy error for atom=    0.0000 (will be added to EATOM!!)


 POSCAR: Ni2MnIn                                 
  positions in direct lattice
  velocities in cartesian coordinates
 exchange correlation table for  LEXCH =        8
   RHO(1)=    0.500       N(1)  =     2000
   RHO(2)=  100.500       N(2)  =     4000



--------------------------------------------------------------------------------------------------------


 ion  position               nearest neighbor table
   1  0.250  0.250  0.267-  11 2.52  12 2.52  13 2.52  14 2.52   9 2.63  10 2.63  15 2.63  16 2.63
                             5 2.77   3 2.97   2 2.97   3 2.97   2 2.97
   2  0.750  0.250  0.267-  11 2.52  12 2.52  13 2.52  14 2.52   9 2.63  10 2.63  15 2.63  16 2.63
                             6 2.77   4 2.97   1 2.97   4 2.97   1 2.97
   3  0.250  0.750  0.267-  11 2.52  12 2.52  13 2.52  14 2.52   9 2.63  10 2.63  15 2.63  16 2.63
                             7 2.77   4 2.97   1 2.97   1 2.97   4 2.97
   4  0.750  0.750  0.267-  11 2.52  12 2.52  13 2.52  14 2.52   9 2.63  10 2.63  15 2.63  16 2.63
                             8 2.77   3 2.97   2 2.97   2 2.97   3 2.97
   5  0.250  0.250  0.733-  11 2.52  12 2.52  13 2.52  14 2.52   9 2.63  10 2.63  15 2.63  16 2.63
                             1 2.77   6 2.97   7 2.97   7 2.97   6 2.97
   6  0.750  0.250  0.733-  11 2.52  12 2.52  13 2.52  14 2.52   9 2.63  10 2.63  15 2.63  16 2.63
                             2 2.77   5 2.97   8 2.97   8 2.97   5 2.97
   7  0.250  0.750  0.733-  11 2.52  12 2.52  13 2.52  14 2.52   9 2.63  10 2.63  15 2.63  16 2.63
                             3 2.77   5 2.97   8 2.97   5 2.97   8 2.97
   8  0.750  0.750  0.733-  11 2.52  12 2.52  13 2.52  14 2.52   9 2.63  10 2.63  15 2.63  16 2.63
                             4 2.77   6 2.97   7 2.97   6 2.97   7 2.97
   9  0.500  0.000  0.000-   1 2.63   2 2.63   3 2.63   4 2.63   5 2.63   6 2.63   7 2.63   8 2.63
                            12 2.97  15 2.97  16 2.97  12 2.97  16 2.97  15 2.97
  10  0.000  0.500  0.000-   1 2.63   2 2.63   3 2.63   4 2.63   5 2.63   6 2.63   7 2.63   8 2.63
                            14 2.97  15 2.97  16 2.97  14 2.97  15 2.97  16 2.97
  11  0.000  0.000  0.500-   1 2.52   2 2.52   3 2.52   4 2.52   5 2.52   6 2.52   7 2.52   8 2.52
                            12 2.97  14 2.97  15 2.97  15 2.97  14 2.97  12 2.97
  12  0.500  0.000  0.500-   1 2.52   2 2.52   3 2.52   4 2.52   5 2.52   6 2.52   7 2.52   8 2.52
                             9 2.97  11 2.97  13 2.97   9 2.97  13 2.97  11 2.97
  13  0.500  0.500  0.500-   1 2.52   2 2.52   3 2.52   4 2.52   5 2.52   6 2.52   7 2.52   8 2.52
                            12 2.97  14 2.97  16 2.97  16 2.97  12 2.97  14 2.97
  14  0.000  0.500  0.500-   1 2.52   2 2.52   3 2.52   4 2.52   5 2.52   6 2.52   7 2.52   8 2.52
                            10 2.97  11 2.97  13 2.97  10 2.97  11 2.97  13 2.97
  15  0.000  0.000  0.000-   1 2.63   2 2.63   3 2.63   4 2.63   5 2.63   6 2.63   7 2.63   8 2.63
                             9 2.97  10 2.97  11 2.97  11 2.97  10 2.97   9 2.97
  16  0.500  0.500  0.000-   1 2.63   2 2.63   3 2.63   4 2.63   5 2.63   6 2.63   7 2.63   8 2.63
                             9 2.97  10 2.97  13 2.97  13 2.97   9 2.97  10 2.97

  LATTYP: Found a simple cubic cell.
 ALAT       =     5.9455395243
  
  Lattice vectors:
  
 A1 = (   5.9455395243,   0.0000000000,   0.0000000000)
 A2 = (   0.0000000000,   5.9455395243,   0.0000000000)
 A3 = (   0.0000000000,   0.0000000000,   5.9455395243)


Analysis of symmetry for initial positions (statically):
=====================================================================
 Subroutine PRICEL returns following result:
 
  LATTYP: Found a simple tetragonal cell.
 ALAT       =     4.2041313154
 C/A-ratio  =     1.4142135624
  
  Lattice vectors:
  
 A1 = (   2.9727697621,  -2.9727697621,   0.0000000000)
 A2 = (  -2.9727697621,  -2.9727697621,   0.0000000000)
 A3 = (   0.0000000000,   0.0000000000,  -5.9455395243)
 
   2 primitive cells build up your supercell.
 

 Routine SETGRP: Setting up the symmetry group for a 
 simple cubic supercell.


 Subroutine GETGRP returns: Found 16 space group operations
 (whereof 16 operations were pure point group operations)
 out of a pool of 48 trial point group operations.


The static configuration has the point symmetry D_4h.


Analysis of symmetry for dynamics (positions and initial velocities):
=====================================================================
 Subroutine PRICEL returns following result:
 
  LATTYP: Found a simple tetragonal cell.
 ALAT       =     4.2041313154
 C/A-ratio  =     1.4142135624
  
  Lattice vectors:
  
 A1 = (   2.9727697621,  -2.9727697621,   0.0000000000)
 A2 = (  -2.9727697621,  -2.9727697621,   0.0000000000)
 A3 = (   0.0000000000,   0.0000000000,  -5.9455395243)
 
   2 primitive cells build up your supercell.
 

 Routine SETGRP: Setting up the symmetry group for a 
 simple cubic supercell.


 Subroutine GETGRP returns: Found 16 space group operations
 (whereof 16 operations were pure point group operations)
 out of a pool of 48 trial point group operations.


The dynamic configuration has the point symmetry D_4h.


Analysis of structural, dynamic, and magnetic symmetry:
=====================================================================
 Subroutine PRICEL returns following result:
 
  LATTYP: Found a simple tetragonal cell.
 ALAT       =     4.2041313154
 C/A-ratio  =     1.4142135624
  
  Lattice vectors:
  
 A1 = (   2.9727697621,  -2.9727697621,   0.0000000000)
 A2 = (  -2.9727697621,  -2.9727697621,   0.0000000000)
 A3 = (   0.0000000000,   0.0000000000,  -5.9455395243)
 
   2 primitive cells build up your supercell.
 

 Routine SETGRP: Setting up the symmetry group for a 
 simple cubic supercell.


 Subroutine GETGRP returns: Found 16 space group operations
 (whereof 16 operations were pure point group operations)
 out of a pool of 48 trial point group operations.


The magnetic configuration has the point symmetry D_4h.


 Subroutine INISYM returns: Found 16 space group operations
 (whereof 16 operations are pure point group operations),
 and found     2 'primitive' translations



 KPOINTS: k-points                                

Automatic generation of k-mesh.
Space group operators:
 irot       det(A)        alpha          n_x          n_y          n_z        tau_x        tau_y        tau_z
    1     1.000000     0.000001     1.000000     0.000000     0.000000     0.000000    -0.000000    -0.000000
    2    -1.000000     0.000001     1.000000     0.000000     0.000000     0.000000    -0.000000    -0.000000
    3     1.000000    90.000000     0.000000     0.000000    -1.000000     0.000000    -0.000000    -0.000000
    4    -1.000000    90.000000     0.000000     0.000000    -1.000000     0.000000    -0.000000    -0.000000
    5     1.000000   180.000000     0.000000     0.000000     1.000000     0.000000    -0.000000    -0.000000
    6    -1.000000   180.000000     0.000000     0.000000     1.000000     0.000000    -0.000000    -0.000000
    7     1.000000    90.000000     0.000000     0.000000     1.000000     0.000000    -0.000000    -0.000000
    8    -1.000000    90.000000     0.000000     0.000000     1.000000     0.000000    -0.000000    -0.000000
    9     1.000000   180.000000     1.000000     0.000000     0.000000     0.000000    -0.000000    -0.000000
   10    -1.000000   180.000000     1.000000     0.000000     0.000000     0.000000    -0.000000    -0.000000
   11     1.000000   180.000000     0.707107     0.707107     0.000000     0.000000    -0.000000    -0.000000
   12    -1.000000   180.000000     0.707107     0.707107     0.000000     0.000000    -0.000000    -0.000000
   13     1.000000   180.000000     0.000000     1.000000     0.000000     0.000000    -0.000000    -0.000000
   14    -1.000000   180.000000     0.000000     1.000000     0.000000     0.000000    -0.000000    -0.000000
   15     1.000000   180.000000     0.707107    -0.707107     0.000000     0.000000    -0.000000    -0.000000
   16    -1.000000   180.000000     0.707107    -0.707107     0.000000     0.000000    -0.000000    -0.000000
 
 Subroutine IBZKPT returns following result:
 ===========================================
 
 Found     40 irreducible k-points:
 
 Following reciprocal coordinates:
            Coordinates               Weight
  0.000000  0.000000  0.000000      1.000000
  0.142857  0.000000  0.000000      4.000000
  0.285714  0.000000  0.000000      4.000000
  0.428571  0.000000  0.000000      4.000000
  0.142857  0.142857  0.000000      4.000000
  0.285714  0.142857  0.000000      8.000000
  0.428571  0.142857  0.000000      8.000000
  0.285714  0.285714  0.000000      4.000000
  0.428571  0.285714  0.000000      8.000000
  0.428571  0.428571  0.000000      4.000000
  0.000000  0.000000  0.142857      2.000000
  0.142857  0.000000  0.142857      8.000000
  0.285714  0.000000  0.142857      8.000000
  0.428571  0.000000  0.142857      8.000000
  0.142857  0.142857  0.142857      8.000000
  0.285714  0.142857  0.142857     16.000000
  0.428571  0.142857  0.142857     16.000000
  0.285714  0.285714  0.142857      8.000000
  0.428571  0.285714  0.142857     16.000000
  0.428571  0.428571  0.142857      8.000000
  0.000000  0.000000  0.285714      2.000000
  0.142857  0.000000  0.285714      8.000000
  0.285714  0.000000  0.285714      8.000000
  0.428571  0.000000  0.285714      8.000000
  0.142857  0.142857  0.285714      8.000000
  0.285714  0.142857  0.285714     16.000000
  0.428571  0.142857  0.285714     16.000000
  0.285714  0.285714  0.285714      8.000000
  0.428571  0.285714  0.285714     16.000000
  0.428571  0.428571  0.285714      8.000000
  0.000000  0.000000  0.428571      2.000000
  0.142857  0.000000  0.428571      8.000000
  0.285714  0.000000  0.428571      8.000000
  0.428571  0.000000  0.428571      8.000000
  0.142857  0.142857  0.428571      8.000000
  0.285714  0.142857  0.428571     16.000000
  0.428571  0.142857  0.428571     16.000000
  0.285714  0.285714  0.428571      8.000000
  0.428571  0.285714  0.428571     16.000000
  0.428571  0.428571  0.428571      8.000000
 
 Following cartesian coordinates:
            Coordinates               Weight
  0.000000  0.000000  0.000000      1.000000
  0.138399  0.000000  0.000000      4.000000
  0.276798  0.000000  0.000000      4.000000
  0.415197  0.000000  0.000000      4.000000
  0.138399  0.138399  0.000000      4.000000
  0.276798  0.138399  0.000000      8.000000
  0.415197  0.138399  0.000000      8.000000
  0.276798  0.276798  0.000000      4.000000
  0.415197  0.276798  0.000000      8.000000
  0.415197  0.415197  0.000000      4.000000
  0.000000  0.000000  0.138399      2.000000
  0.138399  0.000000  0.138399      8.000000
  0.276798  0.000000  0.138399      8.000000
  0.415197  0.000000  0.138399      8.000000
  0.138399  0.138399  0.138399      8.000000
  0.276798  0.138399  0.138399     16.000000
  0.415197  0.138399  0.138399     16.000000
  0.276798  0.276798  0.138399      8.000000
  0.415197  0.276798  0.138399     16.000000
  0.415197  0.415197  0.138399      8.000000
  0.000000  0.000000  0.276798      2.000000
  0.138399  0.000000  0.276798      8.000000
  0.276798  0.000000  0.276798      8.000000
  0.415197  0.000000  0.276798      8.000000
  0.138399  0.138399  0.276798      8.000000
  0.276798  0.138399  0.276798     16.000000
  0.415197  0.138399  0.276798     16.000000
  0.276798  0.276798  0.276798      8.000000
  0.415197  0.276798  0.276798     16.000000
  0.415197  0.415197  0.276798      8.000000
  0.000000  0.000000  0.415197      2.000000
  0.138399  0.000000  0.415197      8.000000
  0.276798  0.000000  0.415197      8.000000
  0.415197  0.000000  0.415197      8.000000
  0.138399  0.138399  0.415197      8.000000
  0.276798  0.138399  0.415197     16.000000
  0.415197  0.138399  0.415197     16.000000
  0.276798  0.276798  0.415197      8.000000
  0.415197  0.276798  0.415197     16.000000
  0.415197  0.415197  0.415197      8.000000
 


--------------------------------------------------------------------------------------------------------




 Dimension of arrays:
   k-points           NKPTS =     40   k-points in BZ     NKDIM =     40   number of bands    NBANDS=     84
   number of dos      NEDOS =    301   number of ions     NIONS =     16
   non local maximal  LDIM  =      6   non local SUM 2l+1 LMDIM =     18
   total plane-waves  NPLWV =  46656
   max r-space proj   IRMAX =   4074   max aug-charges    IRDMAX=  25239
   dimension x,y,z NGX =    36 NGY =   36 NGZ =   36
   dimension x,y,z NGXF=    72 NGYF=   72 NGZF=   72
   support grid    NGXF=    72 NGYF=   72 NGZF=   72
   ions per type =               8   6   2
   NGX,Y,Z   is equivalent  to a cutoff of  10.07, 10.07, 10.07 a.u.
   NGXF,Y,Z  is equivalent  to a cutoff of  20.13, 20.13, 20.13 a.u.

 SYSTEM =  Testrun for NiMnIn                      
 POSCAR =  Ni2MnIn                                 

 Startparameter for this run:
   NWRITE =      2    write-flag & timer
   PREC   = normal    normal or accurate (medium, high low for compatibility)
   ISTART =      0    job   : 0-new  1-cont  2-samecut
   ICHARG =      2    charge: 1-file 2-atom 10-const
   ISPIN  =      2    spin polarized calculation?
   LNONCOLLINEAR =      F non collinear calculations
   LSORBIT =      F    spin-orbit coupling
   INIWAV =      1    electr: 0-lowe 1-rand  2-diag
   LASPH  =      F    aspherical Exc in radial PAW
   METAGGA=      F    non-selfconsistent MetaGGA calc.

 Electronic Relaxation 1
   ENCUT  =  550.0 eV  40.42 Ry    6.36 a.u.  11.37 11.37 11.37*2*pi/ulx,y,z
   ENINI  =  550.0     initial cutoff
   ENAUG  =  544.6 eV  augmentation charge cutoff
   NELM   =     60;   NELMIN=  2; NELMDL= -5     # of ELM steps 
   EDIFF  = 0.1E-04   stopping-criterion for ELM
   LREAL  =      T    real-space projection
   NLSPLINE    = F    spline interpolate recip. space projectors
   LCOMPAT=      F    compatible to vasp.4.4
   GGA_COMPAT  = T    GGA compatible to vasp.4.4-vasp.4.6
   LMAXPAW     = -100 max onsite density
   LMAXMIX     =    2 max onsite mixed and CHGCAR
   VOSKOWN=      0    Vosko Wilk Nusair interpolation
   ROPT   =   -0.00050  -0.00050  -0.00050
 Ionic relaxation
   EDIFFG = -.1E-01   stopping-criterion for IOM
   NSW    =   1000    number of steps for IOM
   NBLOCK =      1;   KBLOCK =   1000    inner block; outer block 
   IBRION =      2    ionic relax: 0-MD 1-quasi-New 2-CG
   NFREE  =      1    steps in history (QN), initial steepest desc. (CG)
   ISIF   =      2    stress and relaxation
   IWAVPR =     11    prediction:  0-non 1-charg 2-wave 3-comb
   ISYM   =      2    0-nonsym 1-usesym 2-fastsym
   LCORR  =      T    Harris-Foulkes like correction to forces

   POTIM  = 0.5000    time-step for ionic-motion
   TEIN   =    0.0    initial temperature
   TEBEG  =    0.0;   TEEND  =   0.0 temperature during run
   SMASS  =  -3.00    Nose mass-parameter (am)
   estimated Nose-frequenzy (Omega)   =  0.10E-29 period in steps =****** mass=  -0.808E-27a.u.
   SCALEE = 1.0000    scale energy and forces
   NPACO  =    256;   APACO  = 16.0  distance and # of slots for P.C.
   PSTRESS=    0.0 pullay stress

  Mass of Ions in am
   POMASS =  58.69 54.94114.82
  Ionic Valenz
   ZVAL   =  10.00  7.00  3.00
  Atomic Wigner-Seitz radii
   RWIGS  =  -1.00 -1.00 -1.00
  virtual crystal weights 
   VCA    =   1.00  1.00  1.00
   NELECT =     128.0000    total number of electrons
   NUPDOWN=      -1.0000    fix difference up-down

 DOS related values:
   EMIN   =  10.00;   EMAX   =-10.00  energy-range for DOS
   EFERMI =   0.00
   ISMEAR =     0;   SIGMA  =   0.02  broadening in eV -4-tet -1-fermi 0-gaus

 Electronic relaxation 2 (details)
   IALGO  =     68    algorithm
   LDIAG  =      T    sub-space diagonalisation (order eigenvalues)
   LSUBROT=      F    optimize rotation matrix (better conditioning)
   TURBO    =      0    0=normal 1=particle mesh
   IRESTART =      0    0=no restart 2=restart with 2 vectors
   NREBOOT  =      0    no. of reboots
   NMIN     =      0    reboot dimension
   EREF     =   0.00    reference energy to select bands
   IMIX   =      4    mixing-type and parameters
     AMIX     =   0.40;   BMIX     =  1.00
     AMIX_MAG =   1.60;   BMIX_MAG =  1.00
     AMIN     =   0.10
     WC   =   100.;   INIMIX=   1;  MIXPRE=   1;  MAXMIX= -45

 Intra band minimization:
   WEIMIN = 0.0010     energy-eigenvalue tresh-hold
   EBREAK =  0.30E-07  absolut break condition
   DEPER  =   0.30     relativ break condition  

   TIME   =   0.40     timestep for ELM

  volume/ion in A,a.u.               =      13.14        88.64
  Fermi-wavevector in a.u.,A,eV,Ry     =   1.387672  2.622320 26.199842  1.925634
  Thomas-Fermi vector in A             =   2.511871

 Write flags
   LWAVE        =      F    write WAVECAR
   LDOWNSAMPLE  =      F    k-point downsampling of WAVECAR
   LCHARG       =      T    write CHGCAR
   LVTOT        =      F    write LOCPOT, total local potential
   LVHAR        =      F    write LOCPOT, Hartree potential only
   LELF         =      F    write electronic localiz. function (ELF)
   LORBIT       =     11    0 simple, 1 ext, 2 COOP (PROOUT), +10 PAW based schemes


 Dipole corrections
   LMONO  =      F    monopole corrections only (constant potential shift)
   LDIPOL =      F    correct potential (dipole corrections)
   IDIPOL =      0    1-x, 2-y, 3-z, 4-all directions 
   EPSILON=  1.0000000 bulk dielectric constant

 Exchange correlation treatment:
   GGA     =    --    GGA type
   LEXCH   =     8    internal setting for exchange type
   VOSKOWN=      0    Vosko Wilk Nusair interpolation
   LHFCALC =     F    Hartree Fock is set to
   LHFONE  =     F    Hartree Fock one center treatment
   AEXX    =    0.0000 exact exchange contribution

 Linear response parameters
   LEPSILON=     F    determine dielectric tensor
   LRPA    =     F    only Hartree local field effects (RPA)
   LNABLA  =     F    use nabla operator in PAW spheres
   LVEL    =     F    velocity operator in full k-point grid
   LINTERFAST=   F  fast interpolation
   KINTER  =     0    interpolate to denser k-point grid
   CSHIFT  =0.1000    complex shift for real part using Kramers Kronig
   OMEGAMAX=  -1.0    maximum frequency
   DEG_THRESHOLD= 0.2000000E-02 threshold for treating states as degnerate
   RTIME   =   -0.100 relaxation time in fs
  (WPLASMAI=    0.000 imaginary part of plasma frequency in eV, 0.658/RTIME)
   DFIELD  = 0.0000000 0.0000000 0.0000000 field for delta impulse in time

 Orbital magnetization related:
   ORBITALMAG=     F  switch on orbital magnetization
   LCHIMAG   =     F  perturbation theory with respect to B field
   DQ        =  0.001000  dq finite difference perturbation B field
   LLRAUG    =     F  two centre corrections for induced B field



--------------------------------------------------------------------------------------------------------


 conjugate gradient relaxation of ions
 charge density and potential will be updated during run
 spin polarized calculation
 RMM-DIIS sequential band-by-band and
  variant of blocked Davidson during initial phase
 perform sub-space diagonalisation
    before iterative eigenvector-optimisation
 modified Broyden-mixing scheme, WC =      100.0
 initial mixing is a Kerker type mixing with AMIX =  0.4000 and BMIX =      1.0000
 Hartree-type preconditioning will be used
 using additional bands           20
 real space projection scheme for non local part
 use partial core corrections
 calculate Harris-corrections to forces   (improved forces if not selfconsistent)
 use gradient corrections 
 use of overlap-Matrix (Vanderbilt PP)
 Gauss-broadening in eV      SIGMA  =   0.02


--------------------------------------------------------------------------------------------------------


  energy-cutoff  :      550.00
  volume of cell :      210.17
      direct lattice vectors                 reciprocal lattice vectors
     5.945539524  0.000000000  0.000000000     0.168193315  0.000000000  0.000000000
     0.000000000  5.945539524  0.000000000     0.000000000  0.168193315  0.000000000
     0.000000000  0.000000000  5.945539524     0.000000000  0.000000000  0.168193315

  length of vectors
     5.945539524  5.945539524  5.945539524     0.168193315  0.168193315  0.168193315



 k-points in units of 2pi/SCALE and weight: k-points                                
   0.00000000  0.00000000  0.00000000       0.003
   0.13839907  0.00000000  0.00000000       0.012
   0.27679814  0.00000000  0.00000000       0.012
   0.41519721  0.00000000  0.00000000       0.012
   0.13839907  0.13839907  0.00000000       0.012
   0.27679814  0.13839907  0.00000000       0.023
   0.41519721  0.13839907  0.00000000       0.023
   0.27679814  0.27679814  0.00000000       0.012
   0.41519721  0.27679814  0.00000000       0.023
   0.41519721  0.41519721  0.00000000       0.012
   0.00000000  0.00000000  0.13839907       0.006
   0.13839907  0.00000000  0.13839907       0.023
   0.27679814  0.00000000  0.13839907       0.023
   0.41519721  0.00000000  0.13839907       0.023
   0.13839907  0.13839907  0.13839907       0.023
   0.27679814  0.13839907  0.13839907       0.047
   0.41519721  0.13839907  0.13839907       0.047
   0.27679814  0.27679814  0.13839907       0.023
   0.41519721  0.27679814  0.13839907       0.047
   0.41519721  0.41519721  0.13839907       0.023
   0.00000000  0.00000000  0.27679814       0.006
   0.13839907  0.00000000  0.27679814       0.023
   0.27679814  0.00000000  0.27679814       0.023
   0.41519721  0.00000000  0.27679814       0.023
   0.13839907  0.13839907  0.27679814       0.023
   0.27679814  0.13839907  0.27679814       0.047
   0.41519721  0.13839907  0.27679814       0.047
   0.27679814  0.27679814  0.27679814       0.023
   0.41519721  0.27679814  0.27679814       0.047
   0.41519721  0.41519721  0.27679814       0.023
   0.00000000  0.00000000  0.41519721       0.006
   0.13839907  0.00000000  0.41519721       0.023
   0.27679814  0.00000000  0.41519721       0.023
   0.41519721  0.00000000  0.41519721       0.023
   0.13839907  0.13839907  0.41519721       0.023
   0.27679814  0.13839907  0.41519721       0.047
   0.41519721  0.13839907  0.41519721       0.047
   0.27679814  0.27679814  0.41519721       0.023
   0.41519721  0.27679814  0.41519721       0.047
   0.41519721  0.41519721  0.41519721       0.023

 k-points in reciprocal lattice and weights: k-points                                
   0.00000000  0.00000000  0.00000000       0.003
   0.14285714  0.00000000  0.00000000       0.012
   0.28571429  0.00000000  0.00000000       0.012
   0.42857143  0.00000000  0.00000000       0.012
   0.14285714  0.14285714  0.00000000       0.012
   0.28571429  0.14285714  0.00000000       0.023
   0.42857143  0.14285714  0.00000000       0.023
   0.28571429  0.28571429  0.00000000       0.012
   0.42857143  0.28571429  0.00000000       0.023
   0.42857143  0.42857143  0.00000000       0.012
   0.00000000  0.00000000  0.14285714       0.006
   0.14285714  0.00000000  0.14285714       0.023
   0.28571429  0.00000000  0.14285714       0.023
   0.42857143  0.00000000  0.14285714       0.023
   0.14285714  0.14285714  0.14285714       0.023
   0.28571429  0.14285714  0.14285714       0.047
   0.42857143  0.14285714  0.14285714       0.047
   0.28571429  0.28571429  0.14285714       0.023
   0.42857143  0.28571429  0.14285714       0.047
   0.42857143  0.42857143  0.14285714       0.023
   0.00000000  0.00000000  0.28571429       0.006
   0.14285714  0.00000000  0.28571429       0.023
   0.28571429  0.00000000  0.28571429       0.023
   0.42857143  0.00000000  0.28571429       0.023
   0.14285714  0.14285714  0.28571429       0.023
   0.28571429  0.14285714  0.28571429       0.047
   0.42857143  0.14285714  0.28571429       0.047
   0.28571429  0.28571429  0.28571429       0.023
   0.42857143  0.28571429  0.28571429       0.047
   0.42857143  0.42857143  0.28571429       0.023
   0.00000000  0.00000000  0.42857143       0.006
   0.14285714  0.00000000  0.42857143       0.023
   0.28571429  0.00000000  0.42857143       0.023
   0.42857143  0.00000000  0.42857143       0.023
   0.14285714  0.14285714  0.42857143       0.023
   0.28571429  0.14285714  0.42857143       0.047
   0.42857143  0.14285714  0.42857143       0.047
   0.28571429  0.28571429  0.42857143       0.023
   0.42857143  0.28571429  0.42857143       0.047
   0.42857143  0.42857143  0.42857143       0.023

 position of ions in fractional coordinates (direct lattice) 
   0.25000000  0.25000000  0.26674185
   0.75000000  0.25000000  0.26674185
   0.25000000  0.75000000  0.26674185
   0.75000000  0.75000000  0.26674185
   0.25000000  0.25000000  0.73325815
   0.75000000  0.25000000  0.73325815
   0.25000000  0.75000000  0.73325815
   0.75000000  0.75000000  0.73325815
   0.50000000  0.00000000  0.00000000
   0.00000000  0.50000000  0.00000000
   0.00000000  0.00000000  0.50000000
   0.50000000  0.00000000  0.50000000
   0.50000000  0.50000000  0.50000000
   0.00000000  0.50000000  0.50000000
   0.00000000  0.00000000  0.00000000
   0.50000000  0.50000000  0.00000000

 position of ions in cartesian coordinates  (Angst):
   1.48638488  1.48638488  1.58592424
   4.45915464  1.48638488  1.58592424
   1.48638488  4.45915464  1.58592424
   4.45915464  4.45915464  1.58592424
   1.48638488  1.48638488  4.35961529
   4.45915464  1.48638488  4.35961529
   1.48638488  4.45915464  4.35961529
   4.45915464  4.45915464  4.35961529
   2.97276976  0.00000000  0.00000000
   0.00000000  2.97276976  0.00000000
   0.00000000  0.00000000  2.97276976
   2.97276976  0.00000000  2.97276976
   2.97276976  2.97276976  2.97276976
   0.00000000  2.97276976  2.97276976
   0.00000000  0.00000000  0.00000000
   2.97276976  2.97276976  0.00000000



--------------------------------------------------------------------------------------------------------


 k-point  1 :   0.0000 0.0000 0.0000  plane waves:    6187
 k-point  2 :   0.1429 0.0000 0.0000  plane waves:    6159
 k-point  3 :   0.2857 0.0000 0.0000  plane waves:    6147
 k-point  4 :   0.4286 0.0000 0.0000  plane waves:    6174
 k-point  5 :   0.1429 0.1429 0.0000  plane waves:    6166
 k-point  6 :   0.2857 0.1429 0.0000  plane waves:    6166
 k-point  7 :   0.4286 0.1429 0.0000  plane waves:    6167
 k-point  8 :   0.2857 0.2857 0.0000  plane waves:    6164
 k-point  9 :   0.4286 0.2857 0.0000  plane waves:    6149
 k-point 10 :   0.4286 0.4286 0.0000  plane waves:    6150
 k-point 11 :   0.0000 0.0000 0.1429  plane waves:    6159
 k-point 12 :   0.1429 0.0000 0.1429  plane waves:    6166
 k-point 13 :   0.2857 0.0000 0.1429  plane waves:    6166
 k-point 14 :   0.4286 0.0000 0.1429  plane waves:    6167
 k-point 15 :   0.1429 0.1429 0.1429  plane waves:    6157
 k-point 16 :   0.2857 0.1429 0.1429  plane waves:    6142
 k-point 17 :   0.4286 0.1429 0.1429  plane waves:    6153
 k-point 18 :   0.2857 0.2857 0.1429  plane waves:    6161
 k-point 19 :   0.4286 0.2857 0.1429  plane waves:    6157
 k-point 20 :   0.4286 0.4286 0.1429  plane waves:    6160
 k-point 21 :   0.0000 0.0000 0.2857  plane waves:    6147
 k-point 22 :   0.1429 0.0000 0.2857  plane waves:    6166
 k-point 23 :   0.2857 0.0000 0.2857  plane waves:    6164
 k-point 24 :   0.4286 0.0000 0.2857  plane waves:    6149
 k-point 25 :   0.1429 0.1429 0.2857  plane waves:    6142
 k-point 26 :   0.2857 0.1429 0.2857  plane waves:    6161
 k-point 27 :   0.4286 0.1429 0.2857  plane waves:    6157
 k-point 28 :   0.2857 0.2857 0.2857  plane waves:    6160
 k-point 29 :   0.4286 0.2857 0.2857  plane waves:    6159
 k-point 30 :   0.4286 0.4286 0.2857  plane waves:    6143
 k-point 31 :   0.0000 0.0000 0.4286  plane waves:    6174
 k-point 32 :   0.1429 0.0000 0.4286  plane waves:    6167
 k-point 33 :   0.2857 0.0000 0.4286  plane waves:    6149
 k-point 34 :   0.4286 0.0000 0.4286  plane waves:    6150
 k-point 35 :   0.1429 0.1429 0.4286  plane waves:    6153
 k-point 36 :   0.2857 0.1429 0.4286  plane waves:    6157
 k-point 37 :   0.4286 0.1429 0.4286  plane waves:    6160
 k-point 38 :   0.2857 0.2857 0.4286  plane waves:    6159
 k-point 39 :   0.4286 0.2857 0.4286  plane waves:    6143
 k-point 40 :   0.4286 0.4286 0.4286  plane waves:    6106

 maximum and minimum number of plane-waves per node :      6187     6106

 maximum number of plane-waves:      6187
 maximum index in each direction: 
   IXMAX=   11   IYMAX=   11   IZMAX=   11
   IXMIN=  -11   IYMIN=  -11   IZMIN=  -11


 serial   3D FFT for wavefunctions
 parallel 3D FFT for charge:
    minimum data exchange during FFTs selected (reduces bandwidth)


 total amount of memory used by VASP MPI-rank0   103215. kBytes
=======================================================================

   base      :      30000. kBytes
   nonlr-proj:       6816. kBytes
   fftplans  :       1269. kBytes
   grid      :       6573. kBytes
   one-center:        497. kBytes
   wavefun   :      58060. kBytes

     INWAV:  cpu time    0.0000: real time    0.0000
 Broyden mixing: mesh for mixing (old mesh)
   NGX = 23   NGY = 23   NGZ = 23
  (NGX  = 72   NGY  = 72   NGZ  = 72)
  gives a total of  12167 points

 initial charge density was supplied:
 charge density of overlapping atoms calculated
 number of electron     128.0000000 magnetization       8.8000000
 keeping initial charge density in first step


--------------------------------------------------------------------------------------------------------


 Maximum index for non-local projection operator         3887
 Maximum index for augmentation-charges         2127 (set IRDMAX)


--------------------------------------------------------------------------------------------------------


 First call to EWALD:  gamma=   0.298
 Maximum number of real-space cells 3x 3x 3
 Maximum number of reciprocal cells 3x 3x 3

    FEWALD:  cpu time    0.0021: real time    0.0021


--------------------------------------- Iteration      1(   1)  ---------------------------------------


    POTLOK:  cpu time    0.1048: real time    0.1115
    SETDIJ:  cpu time    0.0381: real time    0.0382
     EDDAV:  cpu time   23.4564: real time   23.4877
       DOS:  cpu time    0.0035: real time    0.0035
    --------------------------------------------
      LOOP:  cpu time   23.6029: real time   23.6409

 eigenvalue-minimisations  : 13440
 total energy-change (2. order) : 0.1071145E+04  (-0.5426680E+04)
 number of electron     128.0000000 magnetization       8.8000000
 augmentation part      128.0000000 magnetization       8.8000000

 Free energy of the ion-electron system (eV)
  ---------------------------------------------------
  alpha Z        PSCENC =       535.39405617
  Ewald energy   TEWEN  =     -9321.86553532
  -Hartree energ DENC   =     -3117.78567318
  -exchange      EXHF   =         0.00000000
  -V(xc)+E(xc)   XCENC  =        78.28870862
  PAW double counting   =     10320.96726947   -10647.99417394
  entropy T*S    EENTRO =        -0.00187848
  eigenvalues    EBANDS =      1994.68003383
  atomic energy  EATOM  =     11229.46195210
  Solvation  Ediel_sol  =         0.00000000
  ---------------------------------------------------
  free energy    TOTEN  =      1071.14475926 eV

  energy without entropy =     1071.14663774  energy(sigma->0) =     1071.14569850


--------------------------------------------------------------------------------------------------------




--------------------------------------- Iteration      1(   2)  ---------------------------------------


     EDDAV:  cpu time   24.3933: real time   24.4310
       DOS:  cpu time    0.0036: real time    0.0036
    --------------------------------------------
      LOOP:  cpu time   24.3968: real time   24.4345

 eigenvalue-minimisations  : 13440
 total energy-change (2. order) :-0.1069547E+04  (-0.1036147E+04)
 number of electron     128.0000000 magnetization       8.8000000
 augmentation part      128.0000000 magnetization       8.8000000

 Free energy of the ion-electron system (eV)
  ---------------------------------------------------
  alpha Z        PSCENC =       535.39405617
  Ewald energy   TEWEN  =     -9321.86553532
  -Hartree energ DENC   =     -3117.78567318
  -exchange      EXHF   =         0.00000000
  -V(xc)+E(xc)   XCENC  =        78.28870862
  PAW double counting   =     10320.96726947   -10647.99417394
  entropy T*S    EENTRO =        -0.00224125
  eigenvalues    EBANDS =       925.13315689
  atomic energy  EATOM  =     11229.46195210
  Solvation  Ediel_sol  =         0.00000000
  ---------------------------------------------------
  free energy    TOTEN  =         1.59751956 eV

  energy without entropy =        1.59976080  energy(sigma->0) =        1.59864018


--------------------------------------------------------------------------------------------------------




--------------------------------------- Iteration      1(   3)  ---------------------------------------


     EDDAV:  cpu time   25.7039: real time   25.7381
       DOS:  cpu time    0.0039: real time    0.0039
    --------------------------------------------
      LOOP:  cpu time   25.7078: real time   25.7420

 eigenvalue-minimisations  : 15084
 total energy-change (2. order) :-0.1118182E+03  (-0.1003731E+03)
 number of electron     128.0000000 magnetization       8.8000000
 augmentation part      128.0000000 magnetization       8.8000000

 Free energy of the ion-electron system (eV)
  ---------------------------------------------------
  alpha Z        PSCENC =       535.39405617
  Ewald energy   TEWEN  =     -9321.86553532
  -Hartree energ DENC   =     -3117.78567318
  -exchange      EXHF   =         0.00000000
  -V(xc)+E(xc)   XCENC  =        78.28870862
  PAW double counting   =     10320.96726947   -10647.99417394
  entropy T*S    EENTRO =        -0.00345679
  eigenvalues    EBANDS =       813.31615239
  atomic energy  EATOM  =     11229.46195210
  Solvation  Ediel_sol  =         0.00000000
  ---------------------------------------------------
  free energy    TOTEN  =      -110.22070048 eV

  energy without entropy =     -110.21724369  energy(sigma->0) =     -110.21897209


--------------------------------------------------------------------------------------------------------




--------------------------------------- Iteration      1(   4)  ---------------------------------------


     EDDAV:  cpu time   32.6860: real time   32.7246
       DOS:  cpu time    0.0039: real time    0.0039
    --------------------------------------------
      LOOP:  cpu time   32.6899: real time   32.7286

 eigenvalue-minimisations  : 20172
 total energy-change (2. order) :-0.6929122E+01  (-0.6518748E+01)
 number of electron     128.0000000 magnetization       8.8000000
 augmentation part      128.0000000 magnetization       8.8000000

 Free energy of the ion-electron system (eV)
  ---------------------------------------------------
  alpha Z        PSCENC =       535.39405617
  Ewald energy   TEWEN  =     -9321.86553532
  -Hartree energ DENC   =     -3117.78567318
  -exchange      EXHF   =         0.00000000
  -V(xc)+E(xc)   XCENC  =        78.28870862
  PAW double counting   =     10320.96726947   -10647.99417394
  entropy T*S    EENTRO =        -0.00349238
  eigenvalues    EBANDS =       806.38706579
  atomic energy  EATOM  =     11229.46195210
  Solvation  Ediel_sol  =         0.00000000
  ---------------------------------------------------
  free energy    TOTEN  =      -117.14982268 eV

  energy without entropy =     -117.14633030  energy(sigma->0) =     -117.14807649


--------------------------------------------------------------------------------------------------------




--------------------------------------- Iteration      1(   5)  ---------------------------------------


     EDDAV:  cpu time   31.5170: real time   31.5506
       DOS:  cpu time    0.0038: real time    0.0038
    CHARGE:  cpu time    0.7232: real time    0.7237
    MIXING:  cpu time    0.0016: real time    0.0016
    --------------------------------------------
      LOOP:  cpu time   32.2457: real time   32.2797

 eigenvalue-minimisations  : 19308
 total energy-change (2. order) :-0.2432042E+00  (-0.2420124E+00)
 number of electron     127.9999721 magnetization       7.7195321
 augmentation part       60.6119121 magnetization       4.9540876

 Broyden mixing:
  rms(total) = 0.34412E+01    rms(broyden)= 0.34412E+01
  rms(prec ) = 0.52875E+01
  weight for this iteration     100.00

 Free energy of the ion-electron system (eV)
  ---------------------------------------------------
  alpha Z        PSCENC =       535.39405617
  Ewald energy   TEWEN  =     -9321.86553532
  -Hartree energ DENC   =     -3117.78567318
  -exchange      EXHF   =         0.00000000
  -V(xc)+E(xc)   XCENC  =        78.28870862
  PAW double counting   =     10320.96726947   -10647.99417394
  entropy T*S    EENTRO =        -0.00360993
  eigenvalues    EBANDS =       806.14397916
  atomic energy  EATOM  =     11229.46195210
  Solvation  Ediel_sol  =         0.00000000
  ---------------------------------------------------
  free energy    TOTEN  =      -117.39302686 eV

  energy without entropy =     -117.38941693  energy(sigma->0) =     -117.39122190


--------------------------------------------------------------------------------------------------------




--------------------------------------- Iteration      1(   6)  ---------------------------------------


    POTLOK:  cpu time    0.1006: real time    0.1102
    SETDIJ:  cpu time    0.0364: real time    0.0364
    EDDIAG:  cpu time    3.2842: real time    3.2876
  RMM-DIIS:  cpu time   10.7888: real time   10.7987
    ORTHCH:  cpu time    0.6281: real time    0.6287
       DOS:  cpu time    0.0036: real time    0.0036
    CHARGE:  cpu time    0.7276: real time    0.7281
    MIXING:  cpu time    0.0018: real time    0.0018
    --------------------------------------------
      LOOP:  cpu time   15.5711: real time   15.5951

 eigenvalue-minimisations  : 13440
 total energy-change (2. order) : 0.8940058E+01  (-0.1567636E+02)
 number of electron     127.9999760 magnetization       7.8577524
 augmentation part       69.7465842 magnetization       5.8385862

 Broyden mixing:
  rms(total) = 0.41868E+01    rms(broyden)= 0.41868E+01
  rms(prec ) = 0.53113E+01
  weight for this iteration     100.00

 eigenvalues of (default mixing * dielectric matrix)
  average eigenvalue GAMMA=   0.2394
  0.2394

 Free energy of the ion-electron system (eV)
  ---------------------------------------------------
  alpha Z        PSCENC =       535.39405617
  Ewald energy   TEWEN  =     -9321.86553532
  -Hartree energ DENC   =     -2880.38106930
  -exchange      EXHF   =         0.00000000
  -V(xc)+E(xc)   XCENC  =        66.36291270
  PAW double counting   =     11135.86356913   -11428.30249304
  entropy T*S    EENTRO =        -0.00521616
  eigenvalues    EBANDS =       555.01885508
  atomic energy  EATOM  =     11229.46195210
  Solvation  Ediel_sol  =         0.00000000
  ---------------------------------------------------
  free energy    TOTEN  =      -108.45296865 eV

  energy without entropy =     -108.44775249  energy(sigma->0) =     -108.45036057


--------------------------------------------------------------------------------------------------------




--------------------------------------- Iteration      1(   7)  ---------------------------------------


    POTLOK:  cpu time    0.0980: real time    0.0981
    SETDIJ:  cpu time    0.0364: real time    0.0364
    EDDIAG:  cpu time    3.3015: real time    3.3049
  RMM-DIIS:  cpu time   10.6406: real time   10.6508
    ORTHCH:  cpu time    0.6301: real time    0.6307
       DOS:  cpu time    0.0038: real time    0.0038
    CHARGE:  cpu time    0.7346: real time    0.7352
    MIXING:  cpu time    0.0017: real time    0.0017
    --------------------------------------------
      LOOP:  cpu time   15.4467: real time   15.4616

 eigenvalue-minimisations  : 13564
 total energy-change (2. order) :-0.5416483E+00  (-0.2203669E+01)
 number of electron     127.9999673 magnetization       7.4870728
 augmentation part       70.0711999 magnetization       5.7613941

 Broyden mixing:
  rms(total) = 0.29190E+01    rms(broyden)= 0.29189E+01
  rms(prec ) = 0.48503E+01
  weight for this iteration     100.00

 eigenvalues of (default mixing * dielectric matrix)
  average eigenvalue GAMMA=   0.4878
  0.4878  0.4878

 Free energy of the ion-electron system (eV)
  ---------------------------------------------------
  alpha Z        PSCENC =       535.39405617
  Ewald energy   TEWEN  =     -9321.86553532
  -Hartree energ DENC   =     -2880.28653510
  -exchange      EXHF   =         0.00000000
  -V(xc)+E(xc)   XCENC  =        68.50262994
  PAW double counting   =     11477.09276549   -11779.43887469
  entropy T*S    EENTRO =        -0.00252610
  eigenvalues    EBANDS =       562.14745056
  atomic energy  EATOM  =     11229.46195210
  Solvation  Ediel_sol  =         0.00000000
  ---------------------------------------------------
  free energy    TOTEN  =      -108.99461696 eV

  energy without entropy =     -108.99209086  energy(sigma->0) =     -108.99335391


--------------------------------------------------------------------------------------------------------




--------------------------------------- Iteration      1(   8)  ---------------------------------------


    POTLOK:  cpu time    0.0999: real time    0.1000
    SETDIJ:  cpu time    0.0365: real time    0.0365
    EDDIAG:  cpu time    3.3339: real time    3.3372
  RMM-DIIS:  cpu time   10.6735: real time   10.6837
    ORTHCH:  cpu time    0.6280: real time    0.6286
       DOS:  cpu time    0.0039: real time    0.0040
    CHARGE:  cpu time    0.7524: real time    0.7529
    MIXING:  cpu time    0.0017: real time    0.0017
    --------------------------------------------
      LOOP:  cpu time   15.5298: real time   15.5447

 eigenvalue-minimisations  : 13443
 total energy-change (2. order) : 0.3838326E+01  (-0.1954220E+01)
 number of electron     127.9999767 magnetization       7.3101292
 augmentation part       67.0828784 magnetization       5.5421998

 Broyden mixing:
  rms(total) = 0.19029E+01    rms(broyden)= 0.19027E+01
  rms(prec ) = 0.33604E+01
  weight for this iteration     100.00

 eigenvalues of (default mixing * dielectric matrix)
  average eigenvalue GAMMA=   0.5347
  0.8735  0.5234  0.2074

 Free energy of the ion-electron system (eV)
  ---------------------------------------------------
  alpha Z        PSCENC =       535.39405617
  Ewald energy   TEWEN  =     -9321.86553532
  -Hartree energ DENC   =     -2936.49582526
  -exchange      EXHF   =         0.00000000
  -V(xc)+E(xc)   XCENC  =        72.75418504
  PAW double counting   =     11859.53976764   -12186.94995280
  entropy T*S    EENTRO =        -0.00350630
  eigenvalues    EBANDS =       643.00856825
  atomic energy  EATOM  =     11229.46195210
  Solvation  Ediel_sol  =         0.00000000
  ---------------------------------------------------
  free energy    TOTEN  =      -105.15629050 eV

  energy without entropy =     -105.15278420  energy(sigma->0) =     -105.15453735


--------------------------------------------------------------------------------------------------------




--------------------------------------- Iteration      1(   9)  ---------------------------------------


    POTLOK:  cpu time    0.0987: real time    0.0988
    SETDIJ:  cpu time    0.0369: real time    0.0369
    EDDIAG:  cpu time    3.3500: real time    3.3534
  RMM-DIIS:  cpu time   10.7051: real time   10.7152
    ORTHCH:  cpu time    0.6283: real time    0.6289
       DOS:  cpu time    0.0036: real time    0.0037
    CHARGE:  cpu time    0.7405: real time    0.7411
    MIXING:  cpu time    0.0018: real time    0.0018
    --------------------------------------------
      LOOP:  cpu time   15.5650: real time   15.5798

 eigenvalue-minimisations  : 13473
 total energy-change (2. order) : 0.1686159E+01  (-0.2042467E+00)
 number of electron     127.9999722 magnetization       7.4192604
 augmentation part       67.6512572 magnetization       5.3969398

 Broyden mixing:
  rms(total) = 0.73395E+00    rms(broyden)= 0.73384E+00
  rms(prec ) = 0.10629E+01
  weight for this iteration     100.00

 eigenvalues of (default mixing * dielectric matrix)
  average eigenvalue GAMMA=   0.6304
  1.1361  0.6436  0.5532  0.1888

 Free energy of the ion-electron system (eV)
  ---------------------------------------------------
  alpha Z        PSCENC =       535.39405617
  Ewald energy   TEWEN  =     -9321.86553532
  -Hartree energ DENC   =     -2925.25419357
  -exchange      EXHF   =         0.00000000
  -V(xc)+E(xc)   XCENC  =        72.70368605
  PAW double counting   =     12172.35740648   -12504.63045950
  entropy T*S    EENTRO =        -0.00253819
  eigenvalues    EBANDS =       638.36549409
  atomic energy  EATOM  =     11229.46195210
  Solvation  Ediel_sol  =         0.00000000
  ---------------------------------------------------
  free energy    TOTEN  =      -103.47013171 eV

  energy without entropy =     -103.46759352  energy(sigma->0) =     -103.46886261


--------------------------------------------------------------------------------------------------------




--------------------------------------- Iteration      1(  10)  ---------------------------------------


    POTLOK:  cpu time    0.0987: real time    0.0994
    SETDIJ:  cpu time    0.0369: real time    0.0370
    EDDIAG:  cpu time    3.3555: real time    3.3600
  RMM-DIIS:  cpu time   10.7957: real time   10.8096
    ORTHCH:  cpu time    0.6336: real time    0.6343
       DOS:  cpu time    0.0038: real time    0.0040
    CHARGE:  cpu time    0.7448: real time    0.7454
    MIXING:  cpu time    0.0020: real time    0.0020
    --------------------------------------------
      LOOP:  cpu time   15.6709: real time   15.6917

 eigenvalue-minimisations  : 13566
 total energy-change (2. order) :-0.1578847E+00  (-0.8390378E-01)
 number of electron     127.9999723 magnetization       7.5762341
 augmentation part       67.7901006 magnetization       5.9683071

 Broyden mixing:
  rms(total) = 0.71344E+00    rms(broyden)= 0.71343E+00
  rms(prec ) = 0.11466E+01
  weight for this iteration     100.00

 eigenvalues of (default mixing * dielectric matrix)
  average eigenvalue GAMMA=   0.6457
  1.4832  0.7130  0.5487  0.1917  0.2919

 Free energy of the ion-electron system (eV)
  ---------------------------------------------------
  alpha Z        PSCENC =       535.39405617
  Ewald energy   TEWEN  =     -9321.86553532
  -Hartree energ DENC   =     -2919.47848295
  -exchange      EXHF   =         0.00000000
  -V(xc)+E(xc)   XCENC  =        74.02233808
  PAW double counting   =     12490.03684952   -12827.57444138
  entropy T*S    EENTRO =        -0.00330192
  eigenvalues    EBANDS =       636.37854935
  atomic energy  EATOM  =     11229.46195210
  Solvation  Ediel_sol  =         0.00000000
  ---------------------------------------------------
  free energy    TOTEN  =      -103.62801637 eV

  energy without entropy =     -103.62471445  energy(sigma->0) =     -103.62636541


--------------------------------------------------------------------------------------------------------




--------------------------------------- Iteration      1(  11)  ---------------------------------------


    POTLOK:  cpu time    0.0980: real time    0.0983
    SETDIJ:  cpu time    0.0368: real time    0.0369
    EDDIAG:  cpu time    3.3733: real time    3.3784
  RMM-DIIS:  cpu time   10.7471: real time   10.7636
    ORTHCH:  cpu time    0.6310: real time    0.6316
       DOS:  cpu time    0.0037: real time    0.0039
    CHARGE:  cpu time    0.7466: real time    0.7473
    MIXING:  cpu time    0.0020: real time    0.0020
    --------------------------------------------
      LOOP:  cpu time   15.6386: real time   15.6620

 eigenvalue-minimisations  : 13650
 total energy-change (2. order) : 0.2555783E+00  (-0.3732692E-01)
 number of electron     127.9999730 magnetization       7.6972875
 augmentation part       67.6253270 magnetization       5.9102673

 Broyden mixing:
  rms(total) = 0.21142E+00    rms(broyden)= 0.21139E+00
  rms(prec ) = 0.26655E+00
  weight for this iteration     100.00

 eigenvalues of (default mixing * dielectric matrix)
  average eigenvalue GAMMA=   0.7767
  2.0962  0.7568  0.7568  0.6045  0.1907  0.2553

 Free energy of the ion-electron system (eV)
  ---------------------------------------------------
  alpha Z        PSCENC =       535.39405617
  Ewald energy   TEWEN  =     -9321.86553532
  -Hartree energ DENC   =     -2918.55025944
  -exchange      EXHF   =         0.00000000
  -V(xc)+E(xc)   XCENC  =        74.97662612
  PAW double counting   =     12704.20357869   -13045.79674066
  entropy T*S    EENTRO =        -0.00339706
  eigenvalues    EBANDS =       638.80728139
  atomic energy  EATOM  =     11229.46195210
  Solvation  Ediel_sol  =         0.00000000
  ---------------------------------------------------
  free energy    TOTEN  =      -103.37243802 eV

  energy without entropy =     -103.36904096  energy(sigma->0) =     -103.37073949


--------------------------------------------------------------------------------------------------------




--------------------------------------- Iteration      1(  12)  ---------------------------------------


    POTLOK:  cpu time    0.0982: real time    0.0984
    SETDIJ:  cpu time    0.0368: real time    0.0368
    EDDIAG:  cpu time    3.3738: real time    3.3786
  RMM-DIIS:  cpu time   11.0914: real time   11.1060
    ORTHCH:  cpu time    0.6325: real time    0.6333
       DOS:  cpu time    0.0038: real time    0.0040
    CHARGE:  cpu time    0.7413: real time    0.7421
    MIXING:  cpu time    0.0022: real time    0.0022
    --------------------------------------------
      LOOP:  cpu time   15.9801: real time   16.0014

 eigenvalue-minimisations  : 14032
 total energy-change (2. order) :-0.1760055E-01  (-0.1048389E-01)
 number of electron     127.9999727 magnetization       7.7768002
 augmentation part       67.7965578 magnetization       5.8999040

 Broyden mixing:
  rms(total) = 0.17470E+00    rms(broyden)= 0.17470E+00
  rms(prec ) = 0.28798E+00
  weight for this iteration     100.00

 eigenvalues of (default mixing * dielectric matrix)
  average eigenvalue GAMMA=   0.7275
  2.1748  0.7723  0.7723  0.5960  0.1903  0.2701  0.3166

 Free energy of the ion-electron system (eV)
  ---------------------------------------------------
  alpha Z        PSCENC =       535.39405617
  Ewald energy   TEWEN  =     -9321.86553532
  -Hartree energ DENC   =     -2913.42792785
  -exchange      EXHF   =         0.00000000
  -V(xc)+E(xc)   XCENC  =        75.14864398
  PAW double counting   =     12858.82206568   -13202.02836859
  entropy T*S    EENTRO =        -0.00354463
  eigenvalues    EBANDS =       635.10861991
  atomic energy  EATOM  =     11229.46195210
  Solvation  Ediel_sol  =         0.00000000
  ---------------------------------------------------
  free energy    TOTEN  =      -103.39003857 eV

  energy without entropy =     -103.38649393  energy(sigma->0) =     -103.38826625


--------------------------------------------------------------------------------------------------------




--------------------------------------- Iteration      1(  13)  ---------------------------------------


    POTLOK:  cpu time    0.0984: real time    0.0986
    SETDIJ:  cpu time    0.0366: real time    0.0366
    EDDIAG:  cpu time    3.3853: real time    3.3896
  RMM-DIIS:  cpu time   10.9660: real time   10.9802
    ORTHCH:  cpu time    0.6310: real time    0.6322
       DOS:  cpu time    0.0038: real time    0.0041
    CHARGE:  cpu time    0.7530: real time    0.7538
    MIXING:  cpu time    0.0023: real time    0.0023
    --------------------------------------------
      LOOP:  cpu time   15.8764: real time   15.8973

 eigenvalue-minimisations  : 13612
 total energy-change (2. order) : 0.1705677E-01  (-0.4212846E-02)
 number of electron     127.9999730 magnetization       7.9280589
 augmentation part       67.6951988 magnetization       6.0681384

 Broyden mixing:
  rms(total) = 0.96312E-01    rms(broyden)= 0.96304E-01
  rms(prec ) = 0.11639E+00
  weight for this iteration     100.00

 eigenvalues of (default mixing * dielectric matrix)
  average eigenvalue GAMMA=   0.7577
  2.3158  0.9103  0.9103  0.6088  0.6088  0.1908  0.2586  0.2586

 Free energy of the ion-electron system (eV)
  ---------------------------------------------------
  alpha Z        PSCENC =       535.39405617
  Ewald energy   TEWEN  =     -9321.86553532
  -Hartree energ DENC   =     -2914.27867265
  -exchange      EXHF   =         0.00000000
  -V(xc)+E(xc)   XCENC  =        75.38125381
  PAW double counting   =     12909.02874731   -13253.26514802
  entropy T*S    EENTRO =        -0.00386583
  eigenvalues    EBANDS =       636.77423065
  atomic energy  EATOM  =     11229.46195210
  Solvation  Ediel_sol  =         0.00000000
  ---------------------------------------------------
  free energy    TOTEN  =      -103.37298180 eV

  energy without entropy =     -103.36911597  energy(sigma->0) =     -103.37104888


--------------------------------------------------------------------------------------------------------




--------------------------------------- Iteration      1(  14)  ---------------------------------------


    POTLOK:  cpu time    0.1036: real time    0.1058
    SETDIJ:  cpu time    0.0380: real time    0.0380
    EDDIAG:  cpu time    3.4476: real time    3.4511
  RMM-DIIS:  cpu time   11.5060: real time   11.5174
    ORTHCH:  cpu time    0.6353: real time    0.6359
       DOS:  cpu time    0.0037: real time    0.0038
    CHARGE:  cpu time    0.7423: real time    0.7428
    MIXING:  cpu time    0.0025: real time    0.0025
    --------------------------------------------
      LOOP:  cpu time   16.4790: real time   16.4974

 eigenvalue-minimisations  : 14425
 total energy-change (2. order) : 0.5933257E-03  (-0.1282923E-02)
 number of electron     127.9999730 magnetization       8.0043223
 augmentation part       67.7307170 magnetization       6.1548691

 Broyden mixing:
  rms(total) = 0.48372E-01    rms(broyden)= 0.48371E-01
  rms(prec ) = 0.60743E-01
  weight for this iteration     100.00

 eigenvalues of (default mixing * dielectric matrix)
  average eigenvalue GAMMA=   0.8432
  2.2733  1.5711  0.8974  0.8974  0.6075  0.6075  0.1907  0.2544  0.2894

 Free energy of the ion-electron system (eV)
  ---------------------------------------------------
  alpha Z        PSCENC =       535.39405617
  Ewald energy   TEWEN  =     -9321.86553532
  -Hartree energ DENC   =     -2913.22150084
  -exchange      EXHF   =         0.00000000
  -V(xc)+E(xc)   XCENC  =        75.40103306
  PAW double counting   =     12941.17816352   -13285.57330402
  entropy T*S    EENTRO =        -0.00391662
  eigenvalues    EBANDS =       635.85666348
  atomic energy  EATOM  =     11229.46195210
  Solvation  Ediel_sol  =         0.00000000
  ---------------------------------------------------
  free energy    TOTEN  =      -103.37238847 eV

  energy without entropy =     -103.36847185  energy(sigma->0) =     -103.37043016


--------------------------------------------------------------------------------------------------------




--------------------------------------- Iteration      1(  15)  ---------------------------------------


    POTLOK:  cpu time    0.0990: real time    0.0991
    SETDIJ:  cpu time    0.0372: real time    0.0373
    EDDIAG:  cpu time    3.4157: real time    3.4191
  RMM-DIIS:  cpu time   11.8021: real time   11.8136
    ORTHCH:  cpu time    0.6296: real time    0.6302
       DOS:  cpu time    0.0038: real time    0.0038
    CHARGE:  cpu time    0.7448: real time    0.7453
    MIXING:  cpu time    0.0026: real time    0.0026
    --------------------------------------------
      LOOP:  cpu time   16.7349: real time   16.7510

 eigenvalue-minimisations  : 14758
 total energy-change (2. order) : 0.3704830E-03  (-0.2147081E-03)
 number of electron     127.9999730 magnetization       8.0501415
 augmentation part       67.7330763 magnetization       6.1713064

 Broyden mixing:
  rms(total) = 0.21719E-01    rms(broyden)= 0.21716E-01
  rms(prec ) = 0.24660E-01
  weight for this iteration     100.00

 eigenvalues of (default mixing * dielectric matrix)
  average eigenvalue GAMMA=   0.9401
  2.3931  2.3931  0.9590  0.9590  0.6836  0.6377  0.6377  0.1907  0.2931  0.2538

 Free energy of the ion-electron system (eV)
  ---------------------------------------------------
  alpha Z        PSCENC =       535.39405617
  Ewald energy   TEWEN  =     -9321.86553532
  -Hartree energ DENC   =     -2913.26121462
  -exchange      EXHF   =         0.00000000
  -V(xc)+E(xc)   XCENC  =        75.39778291
  PAW double counting   =     12944.29552121   -13288.55420402
  entropy T*S    EENTRO =        -0.00391519
  eigenvalues    EBANDS =       635.76353878
  atomic energy  EATOM  =     11229.46195210
  Solvation  Ediel_sol  =         0.00000000
  ---------------------------------------------------
  free energy    TOTEN  =      -103.37201799 eV

  energy without entropy =     -103.36810280  energy(sigma->0) =     -103.37006039


--------------------------------------------------------------------------------------------------------




--------------------------------------- Iteration      1(  16)  ---------------------------------------


    POTLOK:  cpu time    0.0981: real time    0.0982
    SETDIJ:  cpu time    0.0367: real time    0.0367
    EDDIAG:  cpu time    3.4241: real time    3.4275
  RMM-DIIS:  cpu time   11.9102: real time   11.9216
    ORTHCH:  cpu time    0.6333: real time    0.6339
       DOS:  cpu time    0.0038: real time    0.0038
    CHARGE:  cpu time    0.7303: real time    0.7308
    MIXING:  cpu time    0.0028: real time    0.0028
    --------------------------------------------
      LOOP:  cpu time   16.8392: real time   16.8552

 eigenvalue-minimisations  : 14746
 total energy-change (2. order) :-0.2888960E-04  (-0.4139550E-04)
 number of electron     127.9999730 magnetization       8.0455415
 augmentation part       67.7359678 magnetization       6.1597610

 Broyden mixing:
  rms(total) = 0.79698E-02    rms(broyden)= 0.79688E-02
  rms(prec ) = 0.11086E-01
  weight for this iteration     100.00

 eigenvalues of (default mixing * dielectric matrix)
  average eigenvalue GAMMA=   0.9331
  2.4373  2.4373  1.0224  1.0224  0.7170  0.7170  0.5864  0.5864  0.1907  0.2537
  0.2930

 Free energy of the ion-electron system (eV)
  ---------------------------------------------------
  alpha Z        PSCENC =       535.39405617
  Ewald energy   TEWEN  =     -9321.86553532
  -Hartree energ DENC   =     -2913.29745811
  -exchange      EXHF   =         0.00000000
  -V(xc)+E(xc)   XCENC  =        75.41673956
  PAW double counting   =     12948.09806857   -13292.33006810
  entropy T*S    EENTRO =        -0.00389986
  eigenvalues    EBANDS =       635.75409813
  atomic energy  EATOM  =     11229.46195210
  Solvation  Ediel_sol  =         0.00000000
  ---------------------------------------------------
  free energy    TOTEN  =      -103.37204688 eV

  energy without entropy =     -103.36814701  energy(sigma->0) =     -103.37009695


--------------------------------------------------------------------------------------------------------




--------------------------------------- Iteration      1(  17)  ---------------------------------------


    POTLOK:  cpu time    0.0984: real time    0.0985
    SETDIJ:  cpu time    0.0369: real time    0.0369
    EDDIAG:  cpu time    3.4575: real time    3.4610
  RMM-DIIS:  cpu time   10.2063: real time   10.2160
    ORTHCH:  cpu time    0.6338: real time    0.6344
       DOS:  cpu time    0.0039: real time    0.0039
    CHARGE:  cpu time    0.7450: real time    0.7455
    MIXING:  cpu time    0.0030: real time    0.0030
    --------------------------------------------
      LOOP:  cpu time   15.1848: real time   15.1992

 eigenvalue-minimisations  : 12476
 total energy-change (2. order) : 0.1365831E-04  (-0.8593816E-05)
 number of electron     127.9999730 magnetization       8.0433656
 augmentation part       67.7336545 magnetization       6.1561152

 Broyden mixing:
  rms(total) = 0.34735E-02    rms(broyden)= 0.34732E-02
  rms(prec ) = 0.52154E-02
  weight for this iteration     100.00

 eigenvalues of (default mixing * dielectric matrix)
  average eigenvalue GAMMA=   0.9715
  2.5042  2.5042  1.2163  1.2163  0.8134  0.8134  0.6320  0.6320  0.5885  0.1907
  0.2537  0.2929

 Free energy of the ion-electron system (eV)
  ---------------------------------------------------
  alpha Z        PSCENC =       535.39405617
  Ewald energy   TEWEN  =     -9321.86553532
  -Hartree energ DENC   =     -2913.33698878
  -exchange      EXHF   =         0.00000000
  -V(xc)+E(xc)   XCENC  =        75.42579917
  PAW double counting   =     12948.60329182   -13292.83991010
  entropy T*S    EENTRO =        -0.00391377
  eigenvalues    EBANDS =       635.78921551
  atomic energy  EATOM  =     11229.46195210
  Solvation  Ediel_sol  =         0.00000000
  ---------------------------------------------------
  free energy    TOTEN  =      -103.37203322 eV

  energy without entropy =     -103.36811945  energy(sigma->0) =     -103.37007633


--------------------------------------------------------------------------------------------------------




--------------------------------------- Iteration      1(  18)  ---------------------------------------


    POTLOK:  cpu time    0.1042: real time    0.1049
    SETDIJ:  cpu time    0.0381: real time    0.0382
    EDDIAG:  cpu time    3.4981: real time    3.5066
  RMM-DIIS:  cpu time    7.3663: real time    7.3759
    ORTHCH:  cpu time    0.6320: real time    0.6328
       DOS:  cpu time    0.0037: real time    0.0039
    --------------------------------------------
      LOOP:  cpu time   11.6424: real time   11.6622

[...]
     79      11.4944      0.00000
     80      11.8639      0.00000
     81      11.8785      0.00000
     82      11.9498      0.00000
     83      12.0746      0.00000
     84      12.2862      0.00000


--------------------------------------------------------------------------------------------------------


 soft charge-density along one line, spin component           1
         0         1         2         3         4         5         6         7         8         9
 total charge-density along one line

 soft charge-density along one line, spin component           2
         0         1         2         3         4         5         6         7         8         9
 total charge-density along one line

 pseudopotential strength for first ion, spin component:           1
 -1.646  -0.000   0.026  -0.000   0.000  -2.281  -0.000   0.025
 -0.000  -1.632  -0.000  -0.001   0.000  -0.000  -2.268  -0.000
  0.026  -0.000  -1.652  -0.000   0.000   0.025  -0.000  -2.287
 -0.000  -0.001  -0.000  -1.632  -0.000  -0.000  -0.001  -0.000
  0.000   0.000   0.000  -0.000  -1.671   0.000   0.000   0.000
 -2.281  -0.000   0.025  -0.000   0.000  -2.847  -0.000   0.024
 -0.000  -2.268  -0.000  -0.001   0.000  -0.000  -2.834  -0.000
  0.025  -0.000  -2.287  -0.000   0.000   0.024  -0.000  -2.852
 -0.000  -0.001  -0.000  -2.268  -0.000  -0.000  -0.001  -0.000
  0.000   0.000   0.000  -0.000  -2.305   0.000   0.000   0.000
  0.004   0.000  -0.002   0.000   0.000   0.004   0.000  -0.002
  0.007   0.000  -0.003   0.000   0.000   0.007   0.000  -0.003
  0.000  -0.008  -0.000   0.004  -0.000   0.000  -0.008  -0.000
  0.004   0.000  -0.010   0.000  -0.000   0.004   0.000  -0.009
  0.000   0.004  -0.000  -0.008   0.000   0.000   0.004  -0.000
  0.000  -0.008  -0.000   0.006  -0.000   0.000  -0.008  -0.000
  0.006   0.000  -0.010   0.000  -0.000   0.005   0.000  -0.010
  0.000   0.006  -0.000  -0.008   0.000   0.000   0.005  -0.000
 pseudopotential strength for first ion, spin component:           2
 -1.515  -0.000  -0.021  -0.000   0.000  -2.157  -0.000  -0.020
 -0.000  -1.499  -0.000  -0.009   0.000  -0.000  -2.142  -0.000
 -0.021  -0.000  -1.446  -0.000   0.000  -0.020  -0.000  -2.091
 -0.000  -0.009  -0.000  -1.499  -0.000  -0.000  -0.009  -0.000
  0.000   0.000   0.000  -0.000  -1.474   0.000   0.000   0.000
 -2.157  -0.000  -0.020  -0.000   0.000  -2.728  -0.000  -0.019
 -0.000  -2.142  -0.000  -0.009   0.000  -0.000  -2.714  -0.000
 -0.020  -0.000  -2.091  -0.000   0.000  -0.019  -0.000  -2.665
 -0.000  -0.009  -0.000  -2.142  -0.000  -0.000  -0.009  -0.000
  0.000   0.000   0.000  -0.000  -2.117   0.000   0.000   0.000
 -0.005   0.000  -0.003   0.000   0.000  -0.005   0.000  -0.003
 -0.009   0.000  -0.005   0.000   0.000  -0.008   0.000  -0.005
  0.000  -0.005  -0.000  -0.003  -0.000   0.000  -0.005  -0.000
 -0.003   0.000  -0.009   0.000  -0.000  -0.003   0.000  -0.008
  0.000  -0.003  -0.000  -0.005   0.000   0.000  -0.003  -0.000
  0.000  -0.004  -0.000  -0.004  -0.000   0.000  -0.004  -0.000
 -0.004   0.000  -0.008   0.000  -0.000  -0.004   0.000  -0.008
  0.000  -0.004  -0.000  -0.004   0.000   0.000  -0.004  -0.000
 total augmentation occupancy for first ion, spin component:           1
  2.004   0.000   0.044   0.000  -0.000  -0.528  -0.000  -0.033  -0.000  -0.000  -0.101   0.026  -0.000   0.044  -0.000  -0.000
  0.000   2.047   0.000   0.085  -0.000   0.000  -0.562  -0.000  -0.085  -0.000   0.000  -0.000   0.029  -0.000   0.044  -0.011
  0.044   0.000   2.770  -0.000  -0.000  -0.033   0.000  -1.067  -0.000   0.000   0.004   0.003  -0.000  -0.053  -0.000   0.000
  0.000   0.085   0.000   2.047   0.000   0.000  -0.085   0.000  -0.562   0.000   0.000  -0.000   0.044  -0.000   0.029  -0.009
 -0.000   0.000   0.000  -0.000   2.709  -0.000   0.000   0.000  -0.000  -1.027   0.000  -0.000  -0.000  -0.000  -0.000   0.000
 -0.528  -0.000  -0.033  -0.000   0.000   0.841   0.000   0.017   0.000   0.000   0.064  -0.017  -0.000  -0.025  -0.000   0.000
  0.000  -0.562  -0.000  -0.085   0.000   0.000   0.866   0.000   0.082   0.000   0.000   0.000   0.000   0.000  -0.025   0.001
 -0.033  -0.000  -1.067   0.000   0.000   0.017   0.000   1.129  -0.000   0.000   0.003  -0.004   0.000   0.055   0.000  -0.000
 -0.000  -0.085  -0.000  -0.562  -0.000  -0.000   0.082   0.000   0.866   0.000  -0.000   0.000  -0.025   0.000   0.000   0.006
 -0.000  -0.000   0.000  -0.000  -1.027   0.000   0.000   0.000  -0.000   1.091   0.000   0.000   0.000   0.000   0.000   0.000
 -0.101  -0.000   0.004  -0.000  -0.000   0.064   0.000   0.003  -0.000  -0.000   2.134  -0.287  -0.000   0.052   0.000  -0.000
  0.026  -0.000   0.003  -0.000  -0.000  -0.017  -0.000  -0.004   0.000   0.000  -0.287   0.048  -0.000   0.001  -0.000   0.000
  0.000   0.029   0.000   0.044   0.000   0.000   0.000   0.000  -0.025   0.000  -0.000  -0.000   0.258  -0.000   0.003  -0.027
  0.044   0.000  -0.053   0.000   0.000  -0.025  -0.000   0.055  -0.000  -0.000   0.052   0.001   0.000   0.264  -0.000   0.000
  0.000   0.044   0.000   0.029  -0.000   0.000  -0.025  -0.000   0.000  -0.000  -0.000  -0.000   0.003   0.000   0.258  -0.002
  0.000  -0.011  -0.000  -0.009  -0.000   0.000   0.001   0.000   0.006  -0.000   0.000   0.000  -0.027  -0.000  -0.002   0.003
 -0.009  -0.000  -0.006  -0.000   0.000   0.006   0.000  -0.007   0.000   0.000  -0.006  -0.000   0.000  -0.028   0.000  -0.000
  0.000  -0.009  -0.000  -0.011   0.000   0.000   0.006   0.000   0.001   0.000   0.000  -0.000  -0.002  -0.000  -0.027   0.000
 total augmentation occupancy for first ion, spin component:           2
  0.208  -0.000  -0.288  -0.000  -0.000  -0.118  -0.000   0.180  -0.000  -0.000  -0.093   0.001   0.000  -0.128   0.000   0.000
  0.000   0.236  -0.000   0.057  -0.000   0.000  -0.142   0.000  -0.063   0.000  -0.000   0.000   0.032   0.000  -0.132  -0.002
 -0.288  -0.000   0.369   0.000  -0.000   0.181  -0.000  -0.165   0.000   0.000  -0.012  -0.002  -0.000  -0.009  -0.000  -0.000
 -0.000   0.057  -0.000   0.236   0.000   0.000  -0.063   0.000  -0.142   0.000  -0.000   0.000  -0.132  -0.000   0.032   0.004
 -0.000   0.000   0.000  -0.000   0.320   0.000   0.000   0.000  -0.000  -0.136   0.000  -0.000  -0.000   0.000   0.000  -0.000
 -0.118  -0.000   0.181   0.000   0.000   0.046  -0.000  -0.104   0.000   0.000   0.066  -0.010   0.000   0.094   0.000   0.000
 -0.000  -0.142   0.000  -0.063  -0.000  -0.000   0.065   0.000   0.061   0.000  -0.000   0.000  -0.020   0.000   0.096   0.003
  0.180   0.000  -0.165   0.000   0.000  -0.104   0.000   0.035   0.000   0.000   0.008   0.000   0.000   0.011  -0.000   0.000
 -0.000  -0.063   0.000  -0.142   0.000   0.000   0.061   0.000   0.065   0.000   0.000  -0.000   0.096  -0.000  -0.020  -0.008
 -0.000  -0.000   0.000   0.000  -0.136   0.000   0.000  -0.000   0.000   0.020  -0.000   0.000  -0.000   0.000   0.000   0.000
 -0.093   0.000  -0.012   0.000  -0.000   0.066   0.000   0.008  -0.000  -0.000  -0.052   0.009  -0.000   0.006  -0.000  -0.000
  0.001  -0.000  -0.002  -0.000  -0.000  -0.010   0.000   0.000  -0.000   0.000   0.009  -0.002  -0.000   0.002   0.000   0.000
 -0.000   0.032   0.000  -0.132  -0.000  -0.000  -0.020  -0.000   0.096  -0.000   0.000   0.000  -0.008  -0.000   0.013   0.001
 -0.128  -0.000  -0.009  -0.000  -0.000   0.094  -0.000   0.011  -0.000   0.000   0.006   0.002  -0.000  -0.004   0.000  -0.000
  0.000  -0.132   0.000   0.032   0.000  -0.000   0.096   0.000  -0.020   0.000   0.000  -0.000   0.013   0.000  -0.008  -0.001
 -0.000  -0.002  -0.000   0.004   0.000  -0.000   0.003   0.000  -0.008   0.000  -0.000  -0.000   0.001   0.000  -0.001  -0.000
  0.005   0.000  -0.001   0.000   0.000  -0.008  -0.000   0.001  -0.000   0.000   0.001  -0.000   0.000   0.000   0.000   0.000
  0.000   0.004  -0.000  -0.002   0.000  -0.000  -0.008   0.000   0.003  -0.000   0.000   0.000  -0.001   0.000   0.001   0.000


------------------------ aborting loop because EDIFF is reached ----------------------------------------





 total charge     

# of ion       s       p       d       tot
------------------------------------------
    1        0.473   0.429   8.377   9.278
    2        0.471   0.428   8.391   9.290
    3        0.471   0.428   8.391   9.290
    4        0.473   0.429   8.377   9.278
    5        0.473   0.429   8.377   9.278
    6        0.471   0.428   8.391   9.290
    7        0.471   0.428   8.391   9.290
    8        0.473   0.429   8.377   9.278
    9        0.316   0.292   4.957   5.564
   10        0.316   0.292   4.957   5.564
   11        0.342   0.349   4.953   5.643
   12        0.349   0.346   4.919   5.614
   13        0.342   0.349   4.953   5.643
   14        0.349   0.346   4.919   5.614
   15        1.248   1.768   0.309   3.325
   16        1.248   1.768   0.309   3.325
--------------------------------------------------
tot          8.281   8.936  97.347 114.565



 magnetization (x)

# of ion       s       p       d       tot
------------------------------------------
    1       -0.010  -0.016   0.182   0.156
    2       -0.010  -0.010   0.185   0.165
    3       -0.010  -0.010   0.185   0.165
    4       -0.010  -0.016   0.182   0.156
    5       -0.010  -0.016   0.182   0.156
    6       -0.010  -0.010   0.185   0.165
    7       -0.010  -0.010   0.185   0.165
    8       -0.010  -0.016   0.182   0.156
    9        0.040   0.015   3.534   3.589
   10        0.040   0.015   3.534   3.589
   11        0.035   0.034   3.287   3.356
   12       -0.041  -0.049  -3.476  -3.565
   13        0.035   0.034   3.287   3.356
   14       -0.041  -0.049  -3.476  -3.565
   15       -0.022  -0.070  -0.000  -0.092
   16       -0.022  -0.070  -0.000  -0.092
--------------------------------------------------
tot         -0.055  -0.244   8.158   7.859

    CHARGE:  cpu time    0.7395: real time    0.7401
    FORLOC:  cpu time    0.0066: real time    0.0066
    FORNL :  cpu time    5.1216: real time    5.1273
    STRESS:  cpu time   15.4057: real time   15.4193
    FORCOR:  cpu time    0.1007: real time    0.1008
    FORHAR:  cpu time    0.0161: real time    0.0161
    MIXING:  cpu time    0.0032: real time    0.0032
    OFIELD:  cpu time    0.0000: real time    0.0000

  FORCE on cell =-STRESS in cart. coord.  units (eV):
  Direction    XX          YY          ZZ          XY          YZ          ZX
  --------------------------------------------------------------------------------------
  Alpha Z   535.39406   535.39406   535.39406
  Ewald   -2998.11045 -2998.11045 -3325.67316     0.00000    -0.00000    -0.00000
  Hartree  1071.37196  1071.37196   770.57997    -0.00000    -0.00000    -0.00000
  E(xc)    -670.83687  -670.83687  -671.05449     0.00000     0.00000    -0.00000
  Local    -432.90866  -432.90866   191.17255    -0.00000    -0.00000     0.00000
  n-local  -149.18451  -146.91370  -145.95835     0.00515    -0.55252     0.08756
  augment  1578.21252  1578.21252  1580.99428     0.00000     0.00000    -0.00000
  Kinetic  1056.68163  1070.05291  1065.85837     0.58301     0.97968     1.01764
  Fock        0.00000     0.00000     0.00000     0.00000     0.00000     0.00000
  -------------------------------------------------------------------------------------
  Total      -1.55927    -1.55927     1.31322     0.00000     0.00000     0.00000
  in kB     -11.88658   -11.88658    10.01090     0.00000     0.00000     0.00000
  external pressure =       -4.59 kB  Pullay stress =        0.00 kB


 VOLUME and BASIS-vectors are now :
 -----------------------------------------------------------------------------
  energy-cutoff  :      550.00
  volume of cell :      210.17
      direct lattice vectors                 reciprocal lattice vectors
     5.945539524  0.000000000  0.000000000     0.168193315  0.000000000  0.000000000
     0.000000000  5.945539524  0.000000000     0.000000000  0.168193315  0.000000000
     0.000000000  0.000000000  5.945539524     0.000000000  0.000000000  0.168193315

  length of vectors
     5.945539524  5.945539524  5.945539524     0.168193315  0.168193315  0.168193315


 FORCES acting on ions
    electron-ion (+dipol)            ewald-force                    non-local-force                 convergence-correction
 -----------------------------------------------------------------------------------------------
   0.698E-12 0.661E-12 0.168E+03   0.249E-13 0.711E-14 -.166E+03   -.249E-17 0.173E-17 -.244E+01   0.676E-14 0.321E-14 0.101E-01
   0.971E-12 -.141E-11 0.168E+03   0.391E-13 0.107E-13 -.166E+03   -.781E-17 0.867E-18 -.244E+01   0.632E-13 0.405E-13 0.101E-01
   0.277E-12 0.344E-11 0.168E+03   0.391E-13 0.107E-13 -.166E+03   -.781E-17 -.607E-17 -.244E+01   0.438E-13 0.580E-13 0.101E-01
   0.194E-11 -.326E-11 0.168E+03   0.107E-13 0.711E-14 -.166E+03   -.423E-17 -.347E-17 -.244E+01   0.343E-13 0.174E-13 0.101E-01
   0.652E-12 0.552E-12 -.168E+03   0.711E-13 0.711E-14 0.166E+03   0.000E+00 0.217E-17 0.244E+01   -.695E-14 -.297E-13 -.101E-01
   0.122E-11 -.111E-11 -.168E+03   0.711E-13 0.142E-13 0.166E+03   -.520E-17 0.694E-17 0.244E+01   0.189E-13 -.636E-13 -.101E-01
   0.432E-12 0.339E-11 -.168E+03   0.711E-13 0.284E-13 0.166E+03   -.347E-17 0.347E-17 0.244E+01   -.326E-13 0.784E-13 -.101E-01
   0.200E-11 -.291E-11 -.168E+03   0.711E-13 -.711E-14 0.166E+03   0.000E+00 0.217E-17 0.244E+01   0.668E-13 0.661E-13 -.101E-01
   0.211E-12 0.368E-13 -.648E-12   0.144E-13 0.186E-13 -.136E-14   0.000E+00 0.000E+00 0.000E+00   -.681E-14 0.914E-14 0.401E-13
   -.257E-13 0.187E-12 -.560E-13   0.112E-13 0.611E-14 -.135E-14   0.000E+00 0.000E+00 0.000E+00   -.103E-13 -.111E-13 0.632E-13
   -.317E-13 -.117E-13 0.211E-12   -.117E-12 -.179E-13 -.263E-13   0.000E+00 0.000E+00 0.000E+00   0.190E-13 0.547E-15 -.217E-13
   0.199E-12 -.396E-14 0.155E-11   -.111E-12 -.184E-13 -.284E-13   -.132E-22 0.000E+00 0.000E+00   -.179E-13 0.545E-15 -.472E-13
   0.191E-12 0.156E-12 0.896E-12   -.115E-12 -.246E-13 -.264E-13   0.000E+00 0.000E+00 0.000E+00   -.144E-13 0.126E-13 -.905E-13
   -.241E-13 0.174E-12 0.204E-12   -.114E-12 -.252E-13 -.285E-13   0.000E+00 0.662E-23 0.000E+00   0.111E-13 -.743E-14 -.488E-13
   -.251E-13 0.524E-15 -.275E-13   0.868E-14 0.193E-13 -.151E-13   -.132E-22 -.132E-22 0.000E+00   -.115E-14 -.147E-14 0.135E-13
   -.857E-14 -.501E-12 -.795E-14   0.986E-14 0.277E-13 0.619E-14   0.000E+00 0.000E+00 -.662E-23   0.939E-15 0.267E-15 0.224E-13
 -----------------------------------------------------------------------------------------------
   0.867E-11 -.609E-12 -.186E-10   -.141E-13 0.638E-13 0.208E-13   -.310E-16 0.781E-17 -.888E-15   0.175E-12 0.174E-12 -.315E-12


 POSITION                                       TOTAL-FORCE (eV/Angst)
 -----------------------------------------------------------------------------------
      1.48638      1.48638      1.58592        -0.000000     -0.000000     -0.007128
      4.45915      1.48638      1.58592         0.000000     -0.000000     -0.007128
      1.48638      4.45915      1.58592        -0.000000      0.000000     -0.007128
      4.45915      4.45915      1.58592         0.000000     -0.000000     -0.007128
      1.48638      1.48638      4.35962        -0.000000      0.000000      0.007128
      4.45915      1.48638      4.35962        -0.000000      0.000000      0.007128
      1.48638      4.45915      4.35962        -0.000000      0.000000      0.007128
      4.45915      4.45915      4.35962         0.000000      0.000000      0.007128
      2.97277      0.00000      0.00000        -0.000000      0.000000      0.000000
      0.00000      2.97277      0.00000        -0.000000      0.000000      0.000000
      0.00000      0.00000      2.97277        -0.000000      0.000000      0.000000
      2.97277      0.00000      2.97277         0.000000      0.000000      0.000000
      2.97277      2.97277      2.97277        -0.000000      0.000000      0.000000
      0.00000      2.97277      2.97277        -0.000000      0.000000      0.000000
      0.00000      0.00000      0.00000        -0.000000      0.000000      0.000000
      2.97277      2.97277      0.00000        -0.000000      0.000000      0.000000
 -----------------------------------------------------------------------------------
    total drift:                                0.000000     -0.000000     -0.000000


--------------------------------------------------------------------------------------------------------



  FREE ENERGIE OF THE ION-ELECTRON SYSTEM (eV)
  ---------------------------------------------------
  free  energy   TOTEN  =      -103.37203046 eV

  energy  without entropy=     -103.36811515  energy(sigma->0) =     -103.37007281



--------------------------------------------------------------------------------------------------------


    POTLOK:  cpu time    0.1352: real time    0.1353


--------------------------------------------------------------------------------------------------------




--------------------------------------------------------------------------------------------------------


  
 reached required accuracy - stopping structural energy minimisation
     LOOP+:  cpu time  363.4837: real time  364.0160
    4ORBIT:  cpu time    0.0000: real time    0.0000



 total charge     

# of ion       s       p       d       tot
------------------------------------------
    1        0.473   0.429   8.377   9.278
    2        0.471   0.428   8.391   9.290
    3        0.471   0.428   8.391   9.290
    4        0.473   0.429   8.377   9.278
    5        0.473   0.429   8.377   9.278
    6        0.471   0.428   8.391   9.290
    7        0.471   0.428   8.391   9.290
    8        0.473   0.429   8.377   9.278
    9        0.316   0.292   4.957   5.564
   10        0.316   0.292   4.957   5.564
   11        0.342   0.349   4.953   5.643
   12        0.349   0.346   4.919   5.614
   13        0.342   0.349   4.953   5.643
   14        0.349   0.346   4.919   5.614
   15        1.248   1.768   0.309   3.325
   16        1.248   1.768   0.309   3.325
--------------------------------------------------
tot          8.281   8.936  97.347 114.565



 magnetization (x)

# of ion       s       p       d       tot
------------------------------------------
    1       -0.010  -0.016   0.182   0.156
    2       -0.010  -0.010   0.185   0.165
    3       -0.010  -0.010   0.185   0.165
    4       -0.010  -0.016   0.182   0.156
    5       -0.010  -0.016   0.182   0.156
    6       -0.010  -0.010   0.185   0.165
    7       -0.010  -0.010   0.185   0.165
    8       -0.010  -0.016   0.182   0.156
    9        0.040   0.015   3.534   3.589
   10        0.040   0.015   3.534   3.589
   11        0.035   0.034   3.287   3.356
   12       -0.041  -0.049  -3.476  -3.565
   13        0.035   0.034   3.287   3.356
   14       -0.041  -0.049  -3.476  -3.565
   15       -0.022  -0.070  -0.000  -0.092
   16       -0.022  -0.070  -0.000  -0.092
--------------------------------------------------
tot         -0.055  -0.244   8.158   7.859


 total amount of memory used by VASP MPI-rank0   103215. kBytes
=======================================================================

   base      :      30000. kBytes
   nonlr-proj:       6816. kBytes
   fftplans  :       1269. kBytes
   grid      :       6573. kBytes
   one-center:        497. kBytes
   wavefun   :      58060. kBytes

  
  
 General timing and accounting informations for this job:
 ========================================================
  
                  Total CPU time used (sec):      374.136
                            User time (sec):      353.850
                          System time (sec):       20.285
                         Elapsed time (sec):      375.900
  
                   Maximum memory used (kb):      135792.
                   Average memory used (kb):           0.
  
                          Minor page faults:      9000434
                          Major page faults:           18
                 Voluntary context switches:         1893
