 vasp.5.4.4.18Apr17-6-g9f103f2a35 (build May 21 2018 20:56:50) complex           
 executed on             LinuxGNU date 2021.10.15  15:42:50
 running on   12 total cores
 distrk:  each k-point on   12 cores,    1 groups
 distr:  one band on NCORES_PER_BAND=   1 cores,   12 groups


--------------------------------------------------------------------------------------------------------


 INCAR:
 POTCAR:    PAW_PBE Ni 02Aug2007                  
 POTCAR:    PAW_PBE Mn 06Sep2000                  
 POTCAR:    PAW_PBE In 08Apr2002                  

 ----------------------------------------------------------------------------- 
|                                                                             |
|           W    W    AA    RRRRR   N    N  II  N    N   GGGG   !!!           |
|           W    W   A  A   R    R  NN   N  II  NN   N  G    G  !!!           |
|           W    W  A    A  R    R  N N  N  II  N N  N  G       !!!           |
|           W WW W  AAAAAA  RRRRR   N  N N  II  N  N N  G  GGG   !            |
|           WW  WW  A    A  R   R   N   NN  II  N   NN  G    G                |
|           W    W  A    A  R    R  N    N  II  N    N   GGGG   !!!           |
|                                                                             |
|      For optimal performance we recommend to set                            |
|        NCORE= 4 - approx SQRT( number of cores)                             |
|      NCORE specifies how many cores store one orbital (NPAR=cpu/NCORE).     |
|      This setting can  greatly improve the performance of VASP for DFT.     |
|      The default,   NCORE=1            might be grossly inefficient         |
|      on modern multi-core architectures or massively parallel machines.     |
|      Do your own testing !!!!                                               |
|      Unfortunately you need to use the default for GW and RPA calculations. |
|      (for HF NCORE is supported but not extensively tested yet)             |
|                                                                             |
 ----------------------------------------------------------------------------- 

 POTCAR:    PAW_PBE Ni 02Aug2007                  
   VRHFIN =Ni:                                                                  
   LEXCH  = PE                                                                  
   EATOM  =  1077.6739 eV,   79.2068 Ry                                         
                                                                                
   TITEL  = PAW_PBE Ni 02Aug2007                                                
   LULTRA =        F    use ultrasoft PP ?                                      
   IUNSCR =        1    unscreen: 0-lin 1-nonlin 2-no                           
   RPACOR =    2.000    partial core radius                                     
   POMASS =   58.690; ZVAL   =   10.000    mass and valenz                      
   RCORE  =    2.300    outmost cutoff radius                                   
   RWIGS  =    2.430; RWIGS  =    1.286    wigner-seitz radius (au A)           
   ENMAX  =  269.532; ENMIN  =  202.149 eV                                      
   RCLOC  =    1.201    cutoff for local pot                                    
   LCOR   =        T    correct aug charges                                     
   LPAW   =        T    paw PP                                                  
   EAUG   =  544.565                                                            
   DEXC   =    0.000                                                            
   RMAX   =    2.357    core radius for proj-oper                               
   RAUG   =    1.300    factor for augmentation sphere                          
   RDEP   =    2.390    radius for radial grids                                 
   RDEPT  =    1.838    core radius for aug-charge                              
                                                                                
   Atomic configuration                                                         
    9 entries                                                                   
     n  l   j            E        occ.                                          
     1  0  0.50     -8206.4253   2.0000                                         
     2  0  0.50      -976.1748   2.0000                                         
     2  1  1.50      -839.0571   6.0000                                         
     3  0  0.50      -105.9991   2.0000                                         
     3  1  1.50       -66.4603   6.0000                                         
     3  2  2.50        -4.6458   9.0000                                         
     4  0  0.50        -4.4926   1.0000                                         
     4  1  1.50        -4.0817   0.0000                                         
     4  3  2.50        -1.3606   0.0000                                         
   Description                                                                  
     l       E           TYP  RCUT    TYP  RCUT                                 
     2     -4.6457903     23  2.300                                             
     2     -6.0063729     23  2.300                                             
     0     -4.4925590     23  2.300                                             
     0      5.0102601     23  2.300                                             
     1     -2.7211652     23  2.300                                             
     1     16.5183231     23  2.300                                             
  local pseudopotential read in
  partial core-charges read in
  partial kinetic energy density read in
  atomic valenz-charges read in
  non local Contribution for L=           2  read in
    real space projection operators read in
  non local Contribution for L=           2  read in
    real space projection operators read in
  non local Contribution for L=           0  read in
    real space projection operators read in
  non local Contribution for L=           0  read in
    real space projection operators read in
  non local Contribution for L=           1  read in
    real space projection operators read in
  non local Contribution for L=           1  read in
    real space projection operators read in
    PAW grid and wavefunctions read in

   number of l-projection  operators is LMAX  =           6
   number of lm-projection operators is LMMAX =          18

 POTCAR:    PAW_PBE Mn 06Sep2000                  
   VRHFIN =Mn: d6 s1                                                            
   LEXCH  = PE                                                                  
   EATOM  =   416.7541 eV,   30.6306 Ry                                         
                                                                                
   TITEL  = PAW_PBE Mn 06Sep2000                                                
   LULTRA =        F    use ultrasoft PP ?                                      
   IUNSCR =        1    unscreen: 0-lin 1-nonlin 2-no                           
   RPACOR =    2.000    partial core radius                                     
   POMASS =   54.938; ZVAL   =    7.000    mass and valenz                      
   RCORE  =    2.300    outmost cutoff radius                                   
   RWIGS  =    2.500; RWIGS  =    1.323    wigner-seitz radius (au A)           
   ENMAX  =  269.864; ENMIN  =  202.398 eV                                      
   RCLOC  =    1.725    cutoff for local pot                                    
   LCOR   =        T    correct aug charges                                     
   LPAW   =        T    paw PP                                                  
   EAUG   =  500.711                                                            
   DEXC   =    0.000                                                            
   RMAX   =    2.343    core radius for proj-oper                               
   RAUG   =    1.300    factor for augmentation sphere                          
   RDEP   =    2.338    radius for radial grids                                 
   RDEPT  =    1.911    core radius for aug-charge                              
                                                                                
   Atomic configuration                                                         
    9 entries                                                                   
     n  l   j            E        occ.                                          
     1  0  0.50     -6424.8288   2.0000                                         
     2  0  0.50      -739.1154   2.0000                                         
     2  1  1.50      -625.3949   6.0000                                         
     3  0  0.50       -81.6100   2.0000                                         
     3  1  1.50       -50.4667   6.0000                                         
     3  2  2.50        -3.3745   6.0000                                         
     4  0  0.50        -4.1331   1.0000                                         
     4  1  0.50        -4.0817   0.0000                                         
     4  3  2.50        -1.3606   0.0000                                         
   Description                                                                  
     l       E           TYP  RCUT    TYP  RCUT                                 
     2     -3.3744664     23  2.300                                             
     2     -4.7350490     23  2.300                                             
     0     -4.1331408     23  2.300                                             
     0      7.6656614     23  2.300                                             
     1     -2.7211652     23  2.300                                             
     1     20.4087390     23  2.300                                             
  local pseudopotential read in
  partial core-charges read in
  partial kinetic energy density read in
  atomic valenz-charges read in
  non local Contribution for L=           2  read in
    real space projection operators read in
  non local Contribution for L=           2  read in
    real space projection operators read in
  non local Contribution for L=           0  read in
    real space projection operators read in
  non local Contribution for L=           0  read in
    real space projection operators read in
  non local Contribution for L=           1  read in
    real space projection operators read in
  non local Contribution for L=           1  read in
    real space projection operators read in
    PAW grid and wavefunctions read in

   number of l-projection  operators is LMAX  =           6
   number of lm-projection operators is LMMAX =          18

 POTCAR:    PAW_PBE In 08Apr2002                  
   VRHFIN =In: s2p1                                                             
   LEXCH  = PE                                                                  
   EATOM  =    53.7908 eV,    3.9535 Ry                                         
                                                                                
   TITEL  = PAW_PBE In 08Apr2002                                                
   LULTRA =        F    use ultrasoft PP ?                                      
   IUNSCR =        1    unscreen: 0-lin 1-nonlin 2-no                           
   RPACOR =    2.400    partial core radius                                     
   POMASS =  114.820; ZVAL   =    3.000    mass and valenz                      
   RCORE  =    3.100    outmost cutoff radius                                   
   RWIGS  =    3.170; RWIGS  =    1.677    wigner-seitz radius (au A)           
   ENMAX  =   95.934; ENMIN  =   71.951 eV                                      
   ICORE  =        3    local potential                                         
   LCOR   =        T    correct aug charges                                     
   LPAW   =        T    paw PP                                                  
   EAUG   =  237.125                                                            
   DEXC   =    0.000                                                            
   RMAX   =    3.168    core radius for proj-oper                               
   RAUG   =    1.300    factor for augmentation sphere                          
   RDEP   =    3.187    radius for radial grids                                 
   RDEPT  =    2.711    core radius for aug-charge                              
                                                                                
   Atomic configuration                                                         
   13 entries                                                                   
     n  l   j            E        occ.                                          
     1  0  0.50    -27747.9169   2.0000                                         
     2  0  0.50     -4154.4438   2.0000                                         
     2  1  1.50     -3728.4305   6.0000                                         
     3  0  0.50      -788.3680   2.0000                                         
     3  1  1.50      -648.9215   6.0000                                         
     3  2  2.50      -432.5893  10.0000                                         
     4  0  0.50      -119.6363   2.0000                                         
     4  1  1.50       -78.1086   6.0000                                         
     4  2  2.50       -18.6227  10.0000                                         
     5  0  0.50        -8.2107   2.0000                                         
     5  1  0.50        -2.5185   1.0000                                         
     5  2  2.50        -1.3606   0.0000                                         
     4  3  2.50        -2.7212   0.0000                                         
   Description                                                                  
     l       E           TYP  RCUT    TYP  RCUT                                 
     0     -8.2107306     23  3.100                                             
     0     -6.1485975     23  3.100                                             
     1     -2.5184867     23  3.100                                             
     1      3.2427302     23  3.100                                             
     2     -1.3605826     23  3.100                                             
     3     -1.3605826     23  3.100                                             
  local pseudopotential read in
  partial core-charges read in
  partial kinetic energy density read in
  atomic valenz-charges read in
  non local Contribution for L=           0  read in
    real space projection operators read in
  non local Contribution for L=           0  read in
    real space projection operators read in
  non local Contribution for L=           1  read in
    real space projection operators read in
  non local Contribution for L=           1  read in
    real space projection operators read in
  non local Contribution for L=           2  read in
    real space projection operators read in
    PAW grid and wavefunctions read in

   number of l-projection  operators is LMAX  =           5
   number of lm-projection operators is LMMAX =          13

 Optimization of the real space projectors (new method)

 maximal supplied QI-value         = 16.25
 optimisation between [QCUT,QGAM] = [ 11.86, 23.89] = [ 39.41,159.82] Ry 
 Optimized for a Real-space Cutoff    1.33 Angstroem

   l    n(q)    QCUT    max X(q) W(low)/X(q) W(high)/X(q)  e(spline) 
   2      9    11.864    60.317    0.21E-03    0.51E-03    0.25E-06
   2      9    11.864    55.921    0.21E-03    0.51E-03    0.26E-06
   0      9    11.864    51.690    0.22E-03    0.30E-04    0.17E-06
   0      9    11.864    30.015    0.20E-03    0.28E-04    0.15E-06
   1      9    11.864    18.849    0.76E-04    0.33E-03    0.17E-06
   1      9    11.864    14.624    0.60E-04    0.28E-03    0.15E-06
 Optimization of the real space projectors (new method)

 maximal supplied QI-value         = 16.25
 optimisation between [QCUT,QGAM] = [ 11.86, 23.89] = [ 39.41,159.82] Ry 
 Optimized for a Real-space Cutoff    1.36 Angstroem

   l    n(q)    QCUT    max X(q) W(low)/X(q) W(high)/X(q)  e(spline) 
   2      9    11.864   110.144    0.49E-03    0.50E-03    0.21E-06
   2      9    11.864   103.200    0.49E-03    0.51E-03    0.22E-06
   0     10    11.864    68.437    0.12E-03    0.41E-04    0.21E-06
   0     10    11.864    33.971    0.11E-03    0.36E-04    0.19E-06
   1      9    11.864    17.065    0.24E-03    0.26E-03    0.93E-07
   1      9    11.864    12.540    0.19E-03    0.20E-03    0.80E-07
 Optimization of the real space projectors (new method)

 maximal supplied QI-value         = 12.09
 optimisation between [QCUT,QGAM] = [ 11.97, 23.95] = [ 40.14,160.58] Ry 
 Optimized for a Real-space Cutoff    1.63 Angstroem

   l    n(q)    QCUT    max X(q) W(low)/X(q) W(high)/X(q)  e(spline) 
   0     12    11.973   106.980    0.33E-03    0.16E-03    0.25E-05
   0     12    11.973    81.086    0.37E-03    0.18E-03    0.28E-05
   1     11    11.973    53.097    0.22E-03    0.42E-03    0.40E-05
   1     11    11.973    32.621    0.20E-03    0.40E-03    0.37E-05
   2     11    11.973     8.820    0.30E-03    0.17E-03    0.41E-06
  PAW_PBE Ni 02Aug2007                  :
 energy of atom  1       EATOM=-1077.6739
 kinetic energy error for atom=    0.0027 (will be added to EATOM!!)
  PAW_PBE Mn 06Sep2000                  :
 energy of atom  2       EATOM= -416.7541
 kinetic energy error for atom=    0.0022 (will be added to EATOM!!)
  PAW_PBE In 08Apr2002                  :
 energy of atom  3       EATOM=  -53.7908
 kinetic energy error for atom=    0.0000 (will be added to EATOM!!)


 POSCAR: Ni2MnIn                                 
  positions in direct lattice
  velocities in cartesian coordinates
 exchange correlation table for  LEXCH =        8
   RHO(1)=    0.500       N(1)  =     2000
   RHO(2)=  100.500       N(2)  =     4000



--------------------------------------------------------------------------------------------------------


 ion  position               nearest neighbor table
   1  0.250  0.253  0.269-  14 2.50  13 2.51  11 2.52  12 2.53  10 2.64  16 2.64  15 2.65   9 2.66
                             5 2.75   3 2.95   2 2.97   2 2.98   3 3.01
   2  0.750  0.253  0.269-  14 2.50  13 2.51  11 2.52  12 2.53  10 2.64  16 2.64  15 2.65   9 2.66
                             6 2.75   4 2.95   1 2.97   1 2.98   4 3.01
   3  0.250  0.747  0.269-  14 2.50  13 2.51  11 2.52  12 2.53  10 2.64  16 2.64  15 2.65   9 2.66
                             7 2.75   1 2.95   4 2.97   4 2.98   1 3.01
   4  0.750  0.747  0.269-  14 2.50  13 2.51  11 2.52  12 2.53  10 2.64  16 2.64  15 2.65   9 2.66
                             8 2.75   2 2.95   3 2.97   3 2.98   2 3.01
   5  0.250  0.253  0.731-  14 2.50  13 2.51  11 2.52  12 2.53  10 2.64  16 2.64  15 2.65   9 2.66
                             1 2.75   7 2.95   6 2.97   6 2.98   7 3.01
   6  0.750  0.253  0.731-  14 2.50  13 2.51  11 2.52  12 2.53  10 2.64  16 2.64  15 2.65   9 2.66
                             2 2.75   8 2.95   5 2.97   5 2.98   8 3.01
   7  0.250  0.747  0.731-  14 2.50  13 2.51  11 2.52  12 2.53  10 2.64  16 2.64  15 2.65   9 2.66
                             3 2.75   5 2.95   8 2.97   8 2.98   5 3.01
   8  0.750  0.747  0.731-  14 2.50  13 2.51  11 2.52  12 2.53  10 2.64  16 2.64  15 2.65   9 2.66
                             4 2.75   6 2.95   7 2.97   7 2.98   6 3.01
   9  0.500  0.000  0.000-   1 2.66   2 2.66   3 2.66   4 2.66   5 2.66   6 2.66   7 2.66   8 2.66
                            12 2.98  15 2.98  16 2.98  12 2.98  16 2.98  15 2.98
  10  0.000  0.500  0.000-   1 2.64   2 2.64   3 2.64   4 2.64   5 2.64   6 2.64   7 2.64   8 2.64
                            14 2.98  15 2.98  16 2.98  14 2.98  15 2.98  16 2.98
  11  0.000  0.000  0.500-   1 2.52   2 2.52   3 2.52   4 2.52   5 2.52   6 2.52   7 2.52   8 2.52
                            12 2.98  14 2.98  15 2.98  15 2.98  14 2.98  12 2.98
  12  0.500  0.000  0.500-   1 2.53   2 2.53   3 2.53   4 2.53   5 2.53   6 2.53   7 2.53   8 2.53
                             9 2.98  11 2.98  13 2.98   9 2.98  13 2.98  11 2.98
  13  0.500  0.500  0.500-   1 2.51   2 2.51   3 2.51   4 2.51   5 2.51   6 2.51   7 2.51   8 2.51
                            12 2.98  14 2.98  16 2.98  16 2.98  12 2.98  14 2.98
  14  0.000  0.500  0.500-   1 2.50   2 2.50   3 2.50   4 2.50   5 2.50   6 2.50   7 2.50   8 2.50
                            10 2.98  11 2.98  13 2.98  10 2.98  11 2.98  13 2.98
  15  0.000  0.000  0.000-   1 2.65   2 2.65   3 2.65   4 2.65   5 2.65   6 2.65   7 2.65   8 2.65
                             9 2.98  10 2.98  11 2.98  11 2.98  10 2.98   9 2.98
  16  0.500  0.500  0.000-   1 2.64   2 2.64   3 2.64   4 2.64   5 2.64   6 2.64   7 2.64   8 2.64
                             9 2.98  10 2.98  13 2.98  13 2.98   9 2.98  10 2.98

  LATTYP: Found a simple cubic cell.
 ALAT       =     5.9558269663
  
  Lattice vectors:
  
 A1 = (   5.9558269663,   0.0000000000,   0.0000000000)
 A2 = (   0.0000000000,   5.9558269663,   0.0000000000)
 A3 = (   0.0000000000,   0.0000000000,   5.9558269663)


Analysis of symmetry for initial positions (statically):
=====================================================================
 Subroutine PRICEL returns:
 Original cell was already a primitive cell.
 

 Routine SETGRP: Setting up the symmetry group for a 
 simple cubic supercell.


 Subroutine GETGRP returns: Found  8 space group operations
 (whereof  8 operations were pure point group operations)
 out of a pool of 48 trial point group operations.


The static configuration has the point symmetry D_2h.


Analysis of symmetry for dynamics (positions and initial velocities):
=====================================================================
 Subroutine PRICEL returns:
 Original cell was already a primitive cell.
 

 Routine SETGRP: Setting up the symmetry group for a 
 simple cubic supercell.


 Subroutine GETGRP returns: Found  8 space group operations
 (whereof  8 operations were pure point group operations)
 out of a pool of 48 trial point group operations.


The dynamic configuration has the point symmetry D_2h.


Analysis of structural, dynamic, and magnetic symmetry:
=====================================================================
 Subroutine PRICEL returns:
 Original cell was already a primitive cell.
 

 Routine SETGRP: Setting up the symmetry group for a 
 simple cubic supercell.


 Subroutine GETGRP returns: Found  8 space group operations
 (whereof  8 operations were pure point group operations)
 out of a pool of 48 trial point group operations.


The magnetic configuration has the point symmetry D_2h.


 Subroutine INISYM returns: Found  8 space group operations
 (whereof  8 operations are pure point group operations),
 and found     1 'primitive' translations



 KPOINTS: k-points                                

Automatic generation of k-mesh.
Space group operators:
 irot       det(A)        alpha          n_x          n_y          n_z        tau_x        tau_y        tau_z
    1     1.000000     0.000000     1.000000     0.000000     0.000000     0.000000     0.000000     0.000000
    2    -1.000000     0.000000     1.000000     0.000000     0.000000     0.000000     0.000000     0.000000
    3     1.000000   180.000000     0.000000     0.000000     1.000000     0.000000     0.000000     0.000000
    4    -1.000000   180.000000     0.000000     0.000000     1.000000     0.000000     0.000000     0.000000
    5     1.000000   180.000000     1.000000     0.000000     0.000000     0.000000     0.000000     0.000000
    6    -1.000000   180.000000     1.000000     0.000000     0.000000     0.000000     0.000000     0.000000
    7     1.000000   180.000000     0.000000     1.000000     0.000000     0.000000     0.000000     0.000000
    8    -1.000000   180.000000     0.000000     1.000000     0.000000     0.000000     0.000000     0.000000
 
 Subroutine IBZKPT returns following result:
 ===========================================
 
 Found     64 irreducible k-points:
 
 Following reciprocal coordinates:
            Coordinates               Weight
  0.000000  0.000000  0.000000      1.000000
  0.142857  0.000000  0.000000      2.000000
  0.285714  0.000000  0.000000      2.000000
  0.428571  0.000000  0.000000      2.000000
  0.000000  0.142857  0.000000      2.000000
  0.142857  0.142857  0.000000      4.000000
  0.285714  0.142857  0.000000      4.000000
  0.428571  0.142857  0.000000      4.000000
  0.000000  0.285714  0.000000      2.000000
  0.142857  0.285714  0.000000      4.000000
  0.285714  0.285714  0.000000      4.000000
  0.428571  0.285714  0.000000      4.000000
  0.000000  0.428571  0.000000      2.000000
  0.142857  0.428571  0.000000      4.000000
  0.285714  0.428571  0.000000      4.000000
  0.428571  0.428571  0.000000      4.000000
  0.000000  0.000000  0.142857      2.000000
  0.142857  0.000000  0.142857      4.000000
  0.285714  0.000000  0.142857      4.000000
  0.428571  0.000000  0.142857      4.000000
  0.000000  0.142857  0.142857      4.000000
  0.142857  0.142857  0.142857      8.000000
  0.285714  0.142857  0.142857      8.000000
  0.428571  0.142857  0.142857      8.000000
  0.000000  0.285714  0.142857      4.000000
  0.142857  0.285714  0.142857      8.000000
  0.285714  0.285714  0.142857      8.000000
  0.428571  0.285714  0.142857      8.000000
  0.000000  0.428571  0.142857      4.000000
  0.142857  0.428571  0.142857      8.000000
  0.285714  0.428571  0.142857      8.000000
  0.428571  0.428571  0.142857      8.000000
  0.000000  0.000000  0.285714      2.000000
  0.142857  0.000000  0.285714      4.000000
  0.285714  0.000000  0.285714      4.000000
  0.428571  0.000000  0.285714      4.000000
  0.000000  0.142857  0.285714      4.000000
  0.142857  0.142857  0.285714      8.000000
  0.285714  0.142857  0.285714      8.000000
  0.428571  0.142857  0.285714      8.000000
  0.000000  0.285714  0.285714      4.000000
  0.142857  0.285714  0.285714      8.000000
  0.285714  0.285714  0.285714      8.000000
  0.428571  0.285714  0.285714      8.000000
  0.000000  0.428571  0.285714      4.000000
  0.142857  0.428571  0.285714      8.000000
  0.285714  0.428571  0.285714      8.000000
  0.428571  0.428571  0.285714      8.000000
  0.000000  0.000000  0.428571      2.000000
  0.142857  0.000000  0.428571      4.000000
  0.285714  0.000000  0.428571      4.000000
  0.428571  0.000000  0.428571      4.000000
  0.000000  0.142857  0.428571      4.000000
  0.142857  0.142857  0.428571      8.000000
  0.285714  0.142857  0.428571      8.000000
  0.428571  0.142857  0.428571      8.000000
  0.000000  0.285714  0.428571      4.000000
  0.142857  0.285714  0.428571      8.000000
  0.285714  0.285714  0.428571      8.000000
  0.428571  0.285714  0.428571      8.000000
  0.000000  0.428571  0.428571      4.000000
  0.142857  0.428571  0.428571      8.000000
  0.285714  0.428571  0.428571      8.000000
  0.428571  0.428571  0.428571      8.000000
 
 Following cartesian coordinates:
            Coordinates               Weight
  0.000000  0.000000  0.000000      1.000000
  0.138160  0.000000  0.000000      2.000000
  0.276320  0.000000  0.000000      2.000000
  0.414480  0.000000  0.000000      2.000000
  0.000000  0.138160  0.000000      2.000000
  0.138160  0.138160  0.000000      4.000000
  0.276320  0.138160  0.000000      4.000000
  0.414480  0.138160  0.000000      4.000000
  0.000000  0.276320  0.000000      2.000000
  0.138160  0.276320  0.000000      4.000000
  0.276320  0.276320  0.000000      4.000000
  0.414480  0.276320  0.000000      4.000000
  0.000000  0.414480  0.000000      2.000000
  0.138160  0.414480  0.000000      4.000000
  0.276320  0.414480  0.000000      4.000000
  0.414480  0.414480  0.000000      4.000000
  0.000000  0.000000  0.138160      2.000000
  0.138160  0.000000  0.138160      4.000000
  0.276320  0.000000  0.138160      4.000000
  0.414480  0.000000  0.138160      4.000000
  0.000000  0.138160  0.138160      4.000000
  0.138160  0.138160  0.138160      8.000000
  0.276320  0.138160  0.138160      8.000000
  0.414480  0.138160  0.138160      8.000000
  0.000000  0.276320  0.138160      4.000000
  0.138160  0.276320  0.138160      8.000000
  0.276320  0.276320  0.138160      8.000000
  0.414480  0.276320  0.138160      8.000000
  0.000000  0.414480  0.138160      4.000000
  0.138160  0.414480  0.138160      8.000000
  0.276320  0.414480  0.138160      8.000000
  0.414480  0.414480  0.138160      8.000000
  0.000000  0.000000  0.276320      2.000000
  0.138160  0.000000  0.276320      4.000000
  0.276320  0.000000  0.276320      4.000000
  0.414480  0.000000  0.276320      4.000000
  0.000000  0.138160  0.276320      4.000000
  0.138160  0.138160  0.276320      8.000000
  0.276320  0.138160  0.276320      8.000000
  0.414480  0.138160  0.276320      8.000000
  0.000000  0.276320  0.276320      4.000000
  0.138160  0.276320  0.276320      8.000000
  0.276320  0.276320  0.276320      8.000000
  0.414480  0.276320  0.276320      8.000000
  0.000000  0.414480  0.276320      4.000000
  0.138160  0.414480  0.276320      8.000000
  0.276320  0.414480  0.276320      8.000000
  0.414480  0.414480  0.276320      8.000000
  0.000000  0.000000  0.414480      2.000000
  0.138160  0.000000  0.414480      4.000000
  0.276320  0.000000  0.414480      4.000000
  0.414480  0.000000  0.414480      4.000000
  0.000000  0.138160  0.414480      4.000000
  0.138160  0.138160  0.414480      8.000000
  0.276320  0.138160  0.414480      8.000000
  0.414480  0.138160  0.414480      8.000000
  0.000000  0.276320  0.414480      4.000000
  0.138160  0.276320  0.414480      8.000000
  0.276320  0.276320  0.414480      8.000000
  0.414480  0.276320  0.414480      8.000000
  0.000000  0.414480  0.414480      4.000000
  0.138160  0.414480  0.414480      8.000000
  0.276320  0.414480  0.414480      8.000000
  0.414480  0.414480  0.414480      8.000000
 


--------------------------------------------------------------------------------------------------------




 Dimension of arrays:
   k-points           NKPTS =     64   k-points in BZ     NKDIM =     64   number of bands    NBANDS=     84
   number of dos      NEDOS =    301   number of ions     NIONS =     16
   non local maximal  LDIM  =      6   non local SUM 2l+1 LMDIM =     18
   total plane-waves  NPLWV =  46656
   max r-space proj   IRMAX =   4053   max aug-charges    IRDMAX=  25110
   dimension x,y,z NGX =    36 NGY =   36 NGZ =   36
   dimension x,y,z NGXF=    72 NGYF=   72 NGZF=   72
   support grid    NGXF=    72 NGYF=   72 NGZF=   72
   ions per type =               8   6   2
   NGX,Y,Z   is equivalent  to a cutoff of  10.05, 10.05, 10.05 a.u.
   NGXF,Y,Z  is equivalent  to a cutoff of  20.10, 20.10, 20.10 a.u.

 SYSTEM =  Testrun for NiMnIn                      
 POSCAR =  Ni2MnIn                                 

 Startparameter for this run:
   NWRITE =      2    write-flag & timer
   PREC   = normal    normal or accurate (medium, high low for compatibility)
   ISTART =      0    job   : 0-new  1-cont  2-samecut
   ICHARG =      2    charge: 1-file 2-atom 10-const
   ISPIN  =      2    spin polarized calculation?
   LNONCOLLINEAR =      F non collinear calculations
   LSORBIT =      F    spin-orbit coupling
   INIWAV =      1    electr: 0-lowe 1-rand  2-diag
   LASPH  =      F    aspherical Exc in radial PAW
   METAGGA=      F    non-selfconsistent MetaGGA calc.

 Electronic Relaxation 1
   ENCUT  =  550.0 eV  40.42 Ry    6.36 a.u.  11.39 11.39 11.39*2*pi/ulx,y,z
   ENINI  =  550.0     initial cutoff
   ENAUG  =  544.6 eV  augmentation charge cutoff
   NELM   =     60;   NELMIN=  2; NELMDL= -5     # of ELM steps 
   EDIFF  = 0.1E-04   stopping-criterion for ELM
   LREAL  =      T    real-space projection
   NLSPLINE    = F    spline interpolate recip. space projectors
   LCOMPAT=      F    compatible to vasp.4.4
   GGA_COMPAT  = T    GGA compatible to vasp.4.4-vasp.4.6
   LMAXPAW     = -100 max onsite density
   LMAXMIX     =    2 max onsite mixed and CHGCAR
   VOSKOWN=      0    Vosko Wilk Nusair interpolation
   ROPT   =   -0.00050  -0.00050  -0.00050
 Ionic relaxation
   EDIFFG = -.1E-01   stopping-criterion for IOM
   NSW    =   1000    number of steps for IOM
   NBLOCK =      1;   KBLOCK =   1000    inner block; outer block 
   IBRION =      2    ionic relax: 0-MD 1-quasi-New 2-CG
   NFREE  =      1    steps in history (QN), initial steepest desc. (CG)
   ISIF   =      2    stress and relaxation
   IWAVPR =     11    prediction:  0-non 1-charg 2-wave 3-comb
   ISYM   =      2    0-nonsym 1-usesym 2-fastsym
   LCORR  =      T    Harris-Foulkes like correction to forces

   POTIM  = 0.5000    time-step for ionic-motion
   TEIN   =    0.0    initial temperature
   TEBEG  =    0.0;   TEEND  =   0.0 temperature during run
   SMASS  =  -3.00    Nose mass-parameter (am)
   estimated Nose-frequenzy (Omega)   =  0.10E-29 period in steps =****** mass=  -0.811E-27a.u.
   SCALEE = 1.0000    scale energy and forces
   NPACO  =    256;   APACO  = 16.0  distance and # of slots for P.C.
   PSTRESS=    0.0 pullay stress

  Mass of Ions in am
   POMASS =  58.69 54.94114.82
  Ionic Valenz
   ZVAL   =  10.00  7.00  3.00
  Atomic Wigner-Seitz radii
   RWIGS  =  -1.00 -1.00 -1.00
  virtual crystal weights 
   VCA    =   1.00  1.00  1.00
   NELECT =     128.0000    total number of electrons
   NUPDOWN=      -1.0000    fix difference up-down

 DOS related values:
   EMIN   =  10.00;   EMAX   =-10.00  energy-range for DOS
   EFERMI =   0.00
   ISMEAR =     0;   SIGMA  =   0.02  broadening in eV -4-tet -1-fermi 0-gaus

 Electronic relaxation 2 (details)
   IALGO  =     68    algorithm
   LDIAG  =      T    sub-space diagonalisation (order eigenvalues)
   LSUBROT=      F    optimize rotation matrix (better conditioning)
   TURBO    =      0    0=normal 1=particle mesh
   IRESTART =      0    0=no restart 2=restart with 2 vectors
   NREBOOT  =      0    no. of reboots
   NMIN     =      0    reboot dimension
   EREF     =   0.00    reference energy to select bands
   IMIX   =      4    mixing-type and parameters
     AMIX     =   0.40;   BMIX     =  1.00
     AMIX_MAG =   1.60;   BMIX_MAG =  1.00
     AMIN     =   0.10
     WC   =   100.;   INIMIX=   1;  MIXPRE=   1;  MAXMIX= -45

 Intra band minimization:
   WEIMIN = 0.0010     energy-eigenvalue tresh-hold
   EBREAK =  0.30E-07  absolut break condition
   DEPER  =   0.30     relativ break condition  

   TIME   =   0.40     timestep for ELM

  volume/ion in A,a.u.               =      13.20        89.11
  Fermi-wavevector in a.u.,A,eV,Ry     =   1.385275  2.617791 26.109411  1.918988
  Thomas-Fermi vector in A             =   2.509701

 Write flags
   LWAVE        =      F    write WAVECAR
   LDOWNSAMPLE  =      F    k-point downsampling of WAVECAR
   LCHARG       =      T    write CHGCAR
   LVTOT        =      F    write LOCPOT, total local potential
   LVHAR        =      F    write LOCPOT, Hartree potential only
   LELF         =      F    write electronic localiz. function (ELF)
   LORBIT       =     11    0 simple, 1 ext, 2 COOP (PROOUT), +10 PAW based schemes


 Dipole corrections
   LMONO  =      F    monopole corrections only (constant potential shift)
   LDIPOL =      F    correct potential (dipole corrections)
   IDIPOL =      0    1-x, 2-y, 3-z, 4-all directions 
   EPSILON=  1.0000000 bulk dielectric constant

 Exchange correlation treatment:
   GGA     =    --    GGA type
   LEXCH   =     8    internal setting for exchange type
   VOSKOWN=      0    Vosko Wilk Nusair interpolation
   LHFCALC =     F    Hartree Fock is set to
   LHFONE  =     F    Hartree Fock one center treatment
   AEXX    =    0.0000 exact exchange contribution

 Linear response parameters
   LEPSILON=     F    determine dielectric tensor
   LRPA    =     F    only Hartree local field effects (RPA)
   LNABLA  =     F    use nabla operator in PAW spheres
   LVEL    =     F    velocity operator in full k-point grid
   LINTERFAST=   F  fast interpolation
   KINTER  =     0    interpolate to denser k-point grid
   CSHIFT  =0.1000    complex shift for real part using Kramers Kronig
   OMEGAMAX=  -1.0    maximum frequency
   DEG_THRESHOLD= 0.2000000E-02 threshold for treating states as degnerate
   RTIME   =   -0.100 relaxation time in fs
  (WPLASMAI=    0.000 imaginary part of plasma frequency in eV, 0.658/RTIME)
   DFIELD  = 0.0000000 0.0000000 0.0000000 field for delta impulse in time

 Orbital magnetization related:
   ORBITALMAG=     F  switch on orbital magnetization
   LCHIMAG   =     F  perturbation theory with respect to B field
   DQ        =  0.001000  dq finite difference perturbation B field
   LLRAUG    =     F  two centre corrections for induced B field



--------------------------------------------------------------------------------------------------------


 conjugate gradient relaxation of ions
 charge density and potential will be updated during run
 spin polarized calculation
 RMM-DIIS sequential band-by-band and
  variant of blocked Davidson during initial phase
 perform sub-space diagonalisation
    before iterative eigenvector-optimisation
 modified Broyden-mixing scheme, WC =      100.0
 initial mixing is a Kerker type mixing with AMIX =  0.4000 and BMIX =      1.0000
 Hartree-type preconditioning will be used
 using additional bands           20
 real space projection scheme for non local part
 use partial core corrections
 calculate Harris-corrections to forces   (improved forces if not selfconsistent)
 use gradient corrections 
 use of overlap-Matrix (Vanderbilt PP)
 Gauss-broadening in eV      SIGMA  =   0.02


--------------------------------------------------------------------------------------------------------


  energy-cutoff  :      550.00
  volume of cell :      211.26
      direct lattice vectors                 reciprocal lattice vectors
     5.955826966  0.000000000  0.000000000     0.167902796  0.000000000  0.000000000
     0.000000000  5.955826966  0.000000000     0.000000000  0.167902796  0.000000000
     0.000000000  0.000000000  5.955826966     0.000000000  0.000000000  0.167902796

  length of vectors
     5.955826966  5.955826966  5.955826966     0.167902796  0.167902796  0.167902796



 k-points in units of 2pi/SCALE and weight: k-points                                
   0.00000000  0.00000000  0.00000000       0.003
   0.13816001  0.00000000  0.00000000       0.006
   0.27632003  0.00000000  0.00000000       0.006
   0.41448004  0.00000000  0.00000000       0.006
   0.00000000  0.13816001  0.00000000       0.006
   0.13816001  0.13816001  0.00000000       0.012
   0.27632003  0.13816001  0.00000000       0.012
   0.41448004  0.13816001  0.00000000       0.012
   0.00000000  0.27632003  0.00000000       0.006
   0.13816001  0.27632003  0.00000000       0.012
   0.27632003  0.27632003  0.00000000       0.012
   0.41448004  0.27632003  0.00000000       0.012
   0.00000000  0.41448004  0.00000000       0.006
   0.13816001  0.41448004  0.00000000       0.012
   0.27632003  0.41448004  0.00000000       0.012
   0.41448004  0.41448004  0.00000000       0.012
   0.00000000  0.00000000  0.13816001       0.006
   0.13816001  0.00000000  0.13816001       0.012
   0.27632003  0.00000000  0.13816001       0.012
   0.41448004  0.00000000  0.13816001       0.012
   0.00000000  0.13816001  0.13816001       0.012
   0.13816001  0.13816001  0.13816001       0.023
   0.27632003  0.13816001  0.13816001       0.023
   0.41448004  0.13816001  0.13816001       0.023
   0.00000000  0.27632003  0.13816001       0.012
   0.13816001  0.27632003  0.13816001       0.023
   0.27632003  0.27632003  0.13816001       0.023
   0.41448004  0.27632003  0.13816001       0.023
   0.00000000  0.41448004  0.13816001       0.012
   0.13816001  0.41448004  0.13816001       0.023
   0.27632003  0.41448004  0.13816001       0.023
   0.41448004  0.41448004  0.13816001       0.023
   0.00000000  0.00000000  0.27632003       0.006
   0.13816001  0.00000000  0.27632003       0.012
   0.27632003  0.00000000  0.27632003       0.012
   0.41448004  0.00000000  0.27632003       0.012
   0.00000000  0.13816001  0.27632003       0.012
   0.13816001  0.13816001  0.27632003       0.023
   0.27632003  0.13816001  0.27632003       0.023
   0.41448004  0.13816001  0.27632003       0.023
   0.00000000  0.27632003  0.27632003       0.012
   0.13816001  0.27632003  0.27632003       0.023
   0.27632003  0.27632003  0.27632003       0.023
   0.41448004  0.27632003  0.27632003       0.023
   0.00000000  0.41448004  0.27632003       0.012
   0.13816001  0.41448004  0.27632003       0.023
   0.27632003  0.41448004  0.27632003       0.023
   0.41448004  0.41448004  0.27632003       0.023
   0.00000000  0.00000000  0.41448004       0.006
   0.13816001  0.00000000  0.41448004       0.012
   0.27632003  0.00000000  0.41448004       0.012
   0.41448004  0.00000000  0.41448004       0.012
   0.00000000  0.13816001  0.41448004       0.012
   0.13816001  0.13816001  0.41448004       0.023
   0.27632003  0.13816001  0.41448004       0.023
   0.41448004  0.13816001  0.41448004       0.023
   0.00000000  0.27632003  0.41448004       0.012
   0.13816001  0.27632003  0.41448004       0.023
   0.27632003  0.27632003  0.41448004       0.023
   0.41448004  0.27632003  0.41448004       0.023
   0.00000000  0.41448004  0.41448004       0.012
   0.13816001  0.41448004  0.41448004       0.023
   0.27632003  0.41448004  0.41448004       0.023
   0.41448004  0.41448004  0.41448004       0.023

 k-points in reciprocal lattice and weights: k-points                                
   0.00000000  0.00000000  0.00000000       0.003
   0.14285714  0.00000000  0.00000000       0.006
   0.28571429  0.00000000  0.00000000       0.006
   0.42857143  0.00000000  0.00000000       0.006
   0.00000000  0.14285714  0.00000000       0.006
   0.14285714  0.14285714  0.00000000       0.012
   0.28571429  0.14285714  0.00000000       0.012
   0.42857143  0.14285714  0.00000000       0.012
   0.00000000  0.28571429  0.00000000       0.006
   0.14285714  0.28571429  0.00000000       0.012
   0.28571429  0.28571429  0.00000000       0.012
   0.42857143  0.28571429  0.00000000       0.012
   0.00000000  0.42857143  0.00000000       0.006
   0.14285714  0.42857143  0.00000000       0.012
   0.28571429  0.42857143  0.00000000       0.012
   0.42857143  0.42857143  0.00000000       0.012
   0.00000000  0.00000000  0.14285714       0.006
   0.14285714  0.00000000  0.14285714       0.012
   0.28571429  0.00000000  0.14285714       0.012
   0.42857143  0.00000000  0.14285714       0.012
   0.00000000  0.14285714  0.14285714       0.012
   0.14285714  0.14285714  0.14285714       0.023
   0.28571429  0.14285714  0.14285714       0.023
   0.42857143  0.14285714  0.14285714       0.023
   0.00000000  0.28571429  0.14285714       0.012
   0.14285714  0.28571429  0.14285714       0.023
   0.28571429  0.28571429  0.14285714       0.023
   0.42857143  0.28571429  0.14285714       0.023
   0.00000000  0.42857143  0.14285714       0.012
   0.14285714  0.42857143  0.14285714       0.023
   0.28571429  0.42857143  0.14285714       0.023
   0.42857143  0.42857143  0.14285714       0.023
   0.00000000  0.00000000  0.28571429       0.006
   0.14285714  0.00000000  0.28571429       0.012
   0.28571429  0.00000000  0.28571429       0.012
   0.42857143  0.00000000  0.28571429       0.012
   0.00000000  0.14285714  0.28571429       0.012
   0.14285714  0.14285714  0.28571429       0.023
   0.28571429  0.14285714  0.28571429       0.023
   0.42857143  0.14285714  0.28571429       0.023
   0.00000000  0.28571429  0.28571429       0.012
   0.14285714  0.28571429  0.28571429       0.023
   0.28571429  0.28571429  0.28571429       0.023
   0.42857143  0.28571429  0.28571429       0.023
   0.00000000  0.42857143  0.28571429       0.012
   0.14285714  0.42857143  0.28571429       0.023
   0.28571429  0.42857143  0.28571429       0.023
   0.42857143  0.42857143  0.28571429       0.023
   0.00000000  0.00000000  0.42857143       0.006
   0.14285714  0.00000000  0.42857143       0.012
   0.28571429  0.00000000  0.42857143       0.012
   0.42857143  0.00000000  0.42857143       0.012
   0.00000000  0.14285714  0.42857143       0.012
   0.14285714  0.14285714  0.42857143       0.023
   0.28571429  0.14285714  0.42857143       0.023
   0.42857143  0.14285714  0.42857143       0.023
   0.00000000  0.28571429  0.42857143       0.012
   0.14285714  0.28571429  0.42857143       0.023
   0.28571429  0.28571429  0.42857143       0.023
   0.42857143  0.28571429  0.42857143       0.023
   0.00000000  0.42857143  0.42857143       0.012
   0.14285714  0.42857143  0.42857143       0.023
   0.28571429  0.42857143  0.42857143       0.023
   0.42857143  0.42857143  0.42857143       0.023

 position of ions in fractional coordinates (direct lattice) 
   0.24968424  0.25269364  0.26899914
   0.75031576  0.25269364  0.26899914
   0.24968424  0.74730636  0.26899914
   0.75031576  0.74730636  0.26899914
   0.24968424  0.25269364  0.73100086
   0.75031576  0.25269364  0.73100086
   0.24968424  0.74730636  0.73100086
   0.75031576  0.74730636  0.73100086
   0.50000000  0.00000000  0.00000000
   0.00000000  0.50000000  0.00000000
   0.00000000  0.00000000  0.50000000
   0.50000000  0.00000000  0.50000000
   0.50000000  0.50000000  0.50000000
   0.00000000  0.50000000  0.50000000
   0.00000000  0.00000000  0.00000000
   0.50000000  0.50000000  0.00000000

 position of ions in cartesian coordinates  (Angst):
   1.48707611  1.50499959  1.60211235
   4.46875085  1.50499959  1.60211235
   1.48707611  4.45082737  1.60211235
   4.46875085  4.45082737  1.60211235
   1.48707611  1.50499959  4.35371461
   4.46875085  1.50499959  4.35371461
   1.48707611  4.45082737  4.35371461
   4.46875085  4.45082737  4.35371461
   2.97791348  0.00000000  0.00000000
   0.00000000  2.97791348  0.00000000
   0.00000000  0.00000000  2.97791348
   2.97791348  0.00000000  2.97791348
   2.97791348  2.97791348  2.97791348
   0.00000000  2.97791348  2.97791348
   0.00000000  0.00000000  0.00000000
   2.97791348  2.97791348  0.00000000



--------------------------------------------------------------------------------------------------------


 k-point  1 :   0.0000 0.0000 0.0000  plane waves:    6187
 k-point  2 :   0.1429 0.0000 0.0000  plane waves:    6187
 k-point  3 :   0.2857 0.0000 0.0000  plane waves:    6187
 k-point  4 :   0.4286 0.0000 0.0000  plane waves:    6190
 k-point  5 :   0.0000 0.1429 0.0000  plane waves:    6187
 k-point  6 :   0.1429 0.1429 0.0000  plane waves:    6194
 k-point  7 :   0.2857 0.1429 0.0000  plane waves:    6211
 k-point  8 :   0.4286 0.1429 0.0000  plane waves:    6199
 k-point  9 :   0.0000 0.2857 0.0000  plane waves:    6187
 k-point 10 :   0.1429 0.2857 0.0000  plane waves:    6211
 k-point 11 :   0.2857 0.2857 0.0000  plane waves:    6194
 k-point 12 :   0.4286 0.2857 0.0000  plane waves:    6183
 k-point 13 :   0.0000 0.4286 0.0000  plane waves:    6190
 k-point 14 :   0.1429 0.4286 0.0000  plane waves:    6199
 k-point 15 :   0.2857 0.4286 0.0000  plane waves:    6183
 k-point 16 :   0.4286 0.4286 0.0000  plane waves:    6192
 k-point 17 :   0.0000 0.0000 0.1429  plane waves:    6187
 k-point 18 :   0.1429 0.0000 0.1429  plane waves:    6194
 k-point 19 :   0.2857 0.0000 0.1429  plane waves:    6211
 k-point 20 :   0.4286 0.0000 0.1429  plane waves:    6199
 k-point 21 :   0.0000 0.1429 0.1429  plane waves:    6194
 k-point 22 :   0.1429 0.1429 0.1429  plane waves:    6193
 k-point 23 :   0.2857 0.1429 0.1429  plane waves:    6196
 k-point 24 :   0.4286 0.1429 0.1429  plane waves:    6198
 k-point 25 :   0.0000 0.2857 0.1429  plane waves:    6211
 k-point 26 :   0.1429 0.2857 0.1429  plane waves:    6196
 k-point 27 :   0.2857 0.2857 0.1429  plane waves:    6179
 k-point 28 :   0.4286 0.2857 0.1429  plane waves:    6181
 k-point 29 :   0.0000 0.4286 0.1429  plane waves:    6199
 k-point 30 :   0.1429 0.4286 0.1429  plane waves:    6198
 k-point 31 :   0.2857 0.4286 0.1429  plane waves:    6181
 k-point 32 :   0.4286 0.4286 0.1429  plane waves:    6201
 k-point 33 :   0.0000 0.0000 0.2857  plane waves:    6187
 k-point 34 :   0.1429 0.0000 0.2857  plane waves:    6211
 k-point 35 :   0.2857 0.0000 0.2857  plane waves:    6194
 k-point 36 :   0.4286 0.0000 0.2857  plane waves:    6183
 k-point 37 :   0.0000 0.1429 0.2857  plane waves:    6211
 k-point 38 :   0.1429 0.1429 0.2857  plane waves:    6196
 k-point 39 :   0.2857 0.1429 0.2857  plane waves:    6179
 k-point 40 :   0.4286 0.1429 0.2857  plane waves:    6181
 k-point 41 :   0.0000 0.2857 0.2857  plane waves:    6194
 k-point 42 :   0.1429 0.2857 0.2857  plane waves:    6179
 k-point 43 :   0.2857 0.2857 0.2857  plane waves:    6202
 k-point 44 :   0.4286 0.2857 0.2857  plane waves:    6196
 k-point 45 :   0.0000 0.4286 0.2857  plane waves:    6183
 k-point 46 :   0.1429 0.4286 0.2857  plane waves:    6181
 k-point 47 :   0.2857 0.4286 0.2857  plane waves:    6196
 k-point 48 :   0.4286 0.4286 0.2857  plane waves:    6164
 k-point 49 :   0.0000 0.0000 0.4286  plane waves:    6190
 k-point 50 :   0.1429 0.0000 0.4286  plane waves:    6199
 k-point 51 :   0.2857 0.0000 0.4286  plane waves:    6183
 k-point 52 :   0.4286 0.0000 0.4286  plane waves:    6192
 k-point 53 :   0.0000 0.1429 0.4286  plane waves:    6199
 k-point 54 :   0.1429 0.1429 0.4286  plane waves:    6198
 k-point 55 :   0.2857 0.1429 0.4286  plane waves:    6181
 k-point 56 :   0.4286 0.1429 0.4286  plane waves:    6201
 k-point 57 :   0.0000 0.2857 0.4286  plane waves:    6183
 k-point 58 :   0.1429 0.2857 0.4286  plane waves:    6181
 k-point 59 :   0.2857 0.2857 0.4286  plane waves:    6196
 k-point 60 :   0.4286 0.2857 0.4286  plane waves:    6164
 k-point 61 :   0.0000 0.4286 0.4286  plane waves:    6192
 k-point 62 :   0.1429 0.4286 0.4286  plane waves:    6201
 k-point 63 :   0.2857 0.4286 0.4286  plane waves:    6164
 k-point 64 :   0.4286 0.4286 0.4286  plane waves:    6143

 maximum and minimum number of plane-waves per node :      6211     6143

 maximum number of plane-waves:      6211
 maximum index in each direction: 
   IXMAX=   11   IYMAX=   11   IZMAX=   11
   IXMIN=  -11   IYMIN=  -11   IZMIN=  -11


 serial   3D FFT for wavefunctions
 parallel 3D FFT for charge:
    minimum data exchange during FFTs selected (reduces bandwidth)


 total amount of memory used by VASP MPI-rank0   138384. kBytes
=======================================================================

   base      :      30000. kBytes
   nonlr-proj:       6804. kBytes
   fftplans  :       1269. kBytes
   grid      :       6573. kBytes
   one-center:        497. kBytes
   wavefun   :      93241. kBytes

     INWAV:  cpu time    0.0000: real time    0.0000
 Broyden mixing: mesh for mixing (old mesh)
   NGX = 23   NGY = 23   NGZ = 23
  (NGX  = 72   NGY  = 72   NGZ  = 72)
  gives a total of  12167 points

 initial charge density was supplied:
 charge density of overlapping atoms calculated
 number of electron     128.0000000 magnetization       8.8000000
 keeping initial charge density in first step


--------------------------------------------------------------------------------------------------------


 Maximum index for non-local projection operator         3887
 Maximum index for augmentation-charges         2111 (set IRDMAX)


--------------------------------------------------------------------------------------------------------


 First call to EWALD:  gamma=   0.298
 Maximum number of real-space cells 3x 3x 3
 Maximum number of reciprocal cells 3x 3x 3

    FEWALD:  cpu time    0.0021: real time    0.0021


--------------------------------------- Iteration      1(   1)  ---------------------------------------


    POTLOK:  cpu time    0.1062: real time    0.1088
    SETDIJ:  cpu time    0.0385: real time    0.0385
     EDDAV:  cpu time   39.1493: real time   39.1858
       DOS:  cpu time    0.0055: real time    0.0055
    --------------------------------------------
      LOOP:  cpu time   39.2995: real time   39.3387

 eigenvalue-minimisations  : 21504
 total energy-change (2. order) : 0.1070083E+04  (-0.5420097E+04)
 number of electron     128.0000000 magnetization       8.8000000
 augmentation part      128.0000000 magnetization       8.8000000

 Free energy of the ion-electron system (eV)
  ---------------------------------------------------
  alpha Z        PSCENC =       532.62450265
  Ewald energy   TEWEN  =     -9286.36542531
  -Hartree energ DENC   =     -3143.74417149
  -exchange      EXHF   =         0.00000000
  -V(xc)+E(xc)   XCENC  =        78.37918035
  PAW double counting   =     10320.96726947   -10647.99417394
  entropy T*S    EENTRO =        -0.00152225
  eigenvalues    EBANDS =      1986.75493794
  atomic energy  EATOM  =     11229.46195210
  Solvation  Ediel_sol  =         0.00000000
  ---------------------------------------------------
  free energy    TOTEN  =      1070.08254951 eV

  energy without entropy =     1070.08407176  energy(sigma->0) =     1070.08331064


--------------------------------------------------------------------------------------------------------




--------------------------------------- Iteration      1(   2)  ---------------------------------------


     EDDAV:  cpu time   38.1511: real time   38.1895
       DOS:  cpu time    0.0057: real time    0.0058
    --------------------------------------------
      LOOP:  cpu time   38.1568: real time   38.1953

 eigenvalue-minimisations  : 21504
 total energy-change (2. order) :-0.1068014E+04  (-0.1034982E+04)
 number of electron     128.0000000 magnetization       8.8000000
 augmentation part      128.0000000 magnetization       8.8000000

 Free energy of the ion-electron system (eV)
  ---------------------------------------------------
  alpha Z        PSCENC =       532.62450265
  Ewald energy   TEWEN  =     -9286.36542531
  -Hartree energ DENC   =     -3143.74417149
  -exchange      EXHF   =         0.00000000
  -V(xc)+E(xc)   XCENC  =        78.37918035
  PAW double counting   =     10320.96726947   -10647.99417394
  entropy T*S    EENTRO =        -0.00277016
  eigenvalues    EBANDS =       918.74226593
  atomic energy  EATOM  =     11229.46195210
  Solvation  Ediel_sol  =         0.00000000
  ---------------------------------------------------
  free energy    TOTEN  =         2.06862959 eV

  energy without entropy =        2.07139975  energy(sigma->0) =        2.07001467


--------------------------------------------------------------------------------------------------------




--------------------------------------- Iteration      1(   3)  ---------------------------------------


     EDDAV:  cpu time   42.0113: real time   42.0526
       DOS:  cpu time    0.0058: real time    0.0058
    --------------------------------------------
      LOOP:  cpu time   42.0171: real time   42.0584

 eigenvalue-minimisations  : 24168
 total energy-change (2. order) :-0.1119070E+03  (-0.1002310E+03)
 number of electron     128.0000000 magnetization       8.8000000
 augmentation part      128.0000000 magnetization       8.8000000

 Free energy of the ion-electron system (eV)
  ---------------------------------------------------
  alpha Z        PSCENC =       532.62450265
  Ewald energy   TEWEN  =     -9286.36542531
  -Hartree energ DENC   =     -3143.74417149
  -exchange      EXHF   =         0.00000000
  -V(xc)+E(xc)   XCENC  =        78.37918035
  PAW double counting   =     10320.96726947   -10647.99417394
  entropy T*S    EENTRO =        -0.00303796
  eigenvalues    EBANDS =       806.83556884
  atomic energy  EATOM  =     11229.46195210
  Solvation  Ediel_sol  =         0.00000000
  ---------------------------------------------------
  free energy    TOTEN  =      -109.83833529 eV

  energy without entropy =     -109.83529733  energy(sigma->0) =     -109.83681631


--------------------------------------------------------------------------------------------------------




--------------------------------------- Iteration      1(   4)  ---------------------------------------


     EDDAV:  cpu time   52.6264: real time   52.6752
       DOS:  cpu time    0.0058: real time    0.0058
    --------------------------------------------
      LOOP:  cpu time   52.6322: real time   52.6810

 eigenvalue-minimisations  : 32064
 total energy-change (2. order) :-0.6840602E+01  (-0.6468323E+01)
 number of electron     128.0000000 magnetization       8.8000000
 augmentation part      128.0000000 magnetization       8.8000000

 Free energy of the ion-electron system (eV)
  ---------------------------------------------------
  alpha Z        PSCENC =       532.62450265
  Ewald energy   TEWEN  =     -9286.36542531
  -Hartree energ DENC   =     -3143.74417149
  -exchange      EXHF   =         0.00000000
  -V(xc)+E(xc)   XCENC  =        78.37918035
  PAW double counting   =     10320.96726947   -10647.99417394
  entropy T*S    EENTRO =        -0.00340259
  eigenvalues    EBANDS =       799.99533142
  atomic energy  EATOM  =     11229.46195210
  Solvation  Ediel_sol  =         0.00000000
  ---------------------------------------------------
  free energy    TOTEN  =      -116.67893735 eV

  energy without entropy =     -116.67553476  energy(sigma->0) =     -116.67723606


--------------------------------------------------------------------------------------------------------




--------------------------------------- Iteration      1(   5)  ---------------------------------------


     EDDAV:  cpu time   51.6957: real time   51.7424
       DOS:  cpu time    0.0058: real time    0.0058
    CHARGE:  cpu time    1.0701: real time    1.0707
    MIXING:  cpu time    0.0016: real time    0.0016
    --------------------------------------------
      LOOP:  cpu time   52.7732: real time   52.8206

 eigenvalue-minimisations  : 31416
 total energy-change (2. order) :-0.2295403E+00  (-0.2284866E+00)
 number of electron     128.0000062 magnetization       7.5046349
 augmentation part       60.6377590 magnetization       4.8414717

 Broyden mixing:
  rms(total) = 0.34473E+01    rms(broyden)= 0.34473E+01
  rms(prec ) = 0.53111E+01
  weight for this iteration     100.00

 Free energy of the ion-electron system (eV)
  ---------------------------------------------------
  alpha Z        PSCENC =       532.62450265
  Ewald energy   TEWEN  =     -9286.36542531
  -Hartree energ DENC   =     -3143.74417149
  -exchange      EXHF   =         0.00000000
  -V(xc)+E(xc)   XCENC  =        78.37918035
  PAW double counting   =     10320.96726947   -10647.99417394
  entropy T*S    EENTRO =        -0.00345220
  eigenvalues    EBANDS =       799.76584077
  atomic energy  EATOM  =     11229.46195210
  Solvation  Ediel_sol  =         0.00000000
  ---------------------------------------------------
  free energy    TOTEN  =      -116.90847761 eV

  energy without entropy =     -116.90502541  energy(sigma->0) =     -116.90675151


--------------------------------------------------------------------------------------------------------




--------------------------------------- Iteration      1(   6)  ---------------------------------------


    POTLOK:  cpu time    0.1159: real time    0.1166
    SETDIJ:  cpu time    0.0377: real time    0.0378
    EDDIAG:  cpu time    5.3465: real time    5.3534
  RMM-DIIS:  cpu time   16.9357: real time   16.9594
    ORTHCH:  cpu time    1.0258: real time    1.0269
       DOS:  cpu time    0.0062: real time    0.0064
    CHARGE:  cpu time    1.1034: real time    1.1046
    MIXING:  cpu time    0.0017: real time    0.0017
    --------------------------------------------
      LOOP:  cpu time   24.5729: real time   24.6068

 eigenvalue-minimisations  : 21504
 total energy-change (2. order) : 0.7144102E+01  (-0.1639245E+02)
 number of electron     128.0000128 magnetization       7.1756757
 augmentation part       69.6886627 magnetization       5.7891924

 Broyden mixing:
  rms(total) = 0.45918E+01    rms(broyden)= 0.45917E+01
  rms(prec ) = 0.61449E+01
  weight for this iteration     100.00

 eigenvalues of (default mixing * dielectric matrix)
  average eigenvalue GAMMA=   0.2232
  0.2232

 Free energy of the ion-electron system (eV)
  ---------------------------------------------------
  alpha Z        PSCENC =       532.62450265
  Ewald energy   TEWEN  =     -9286.36542531
  -Hartree energ DENC   =     -2909.57962673
  -exchange      EXHF   =         0.00000000
  -V(xc)+E(xc)   XCENC  =        66.40389868
  PAW double counting   =     11131.86950380   -11424.97644399
  entropy T*S    EENTRO =        -0.00466294
  eigenvalues    EBANDS =       550.80192588
  atomic energy  EATOM  =     11229.46195210
  Solvation  Ediel_sol  =         0.00000000
  ---------------------------------------------------
  free energy    TOTEN  =      -109.76437586 eV

  energy without entropy =     -109.75971293  energy(sigma->0) =     -109.76204440


--------------------------------------------------------------------------------------------------------




--------------------------------------- Iteration      1(   7)  ---------------------------------------


    POTLOK:  cpu time    0.0974: real time    0.0976
    SETDIJ:  cpu time    0.0359: real time    0.0359
    EDDIAG:  cpu time    5.3797: real time    5.3866
  RMM-DIIS:  cpu time   16.9436: real time   16.9667
    ORTHCH:  cpu time    1.0317: real time    1.0330
       DOS:  cpu time    0.0059: real time    0.0062
    CHARGE:  cpu time    1.0859: real time    1.0870
    MIXING:  cpu time    0.0017: real time    0.0017
    --------------------------------------------
      LOOP:  cpu time   24.5819: real time   24.6146

 eigenvalue-minimisations  : 21556
 total energy-change (2. order) :-0.1359721E+01  (-0.2564490E+01)
 number of electron     128.0000065 magnetization       6.8133664
 augmentation part       70.1155539 magnetization       4.5596178

 Broyden mixing:
  rms(total) = 0.37103E+01    rms(broyden)= 0.37102E+01
  rms(prec ) = 0.67287E+01
  weight for this iteration     100.00

 eigenvalues of (default mixing * dielectric matrix)
  average eigenvalue GAMMA=   0.4052
  0.4052  0.4052

 Free energy of the ion-electron system (eV)
  ---------------------------------------------------
  alpha Z        PSCENC =       532.62450265
  Ewald energy   TEWEN  =     -9286.36542531
  -Hartree energ DENC   =     -2899.78621051
  -exchange      EXHF   =         0.00000000
  -V(xc)+E(xc)   XCENC  =        67.36594343
  PAW double counting   =     11423.23724566   -11722.74743320
  entropy T*S    EENTRO =        -0.00260128
  eigenvalues    EBANDS =       545.08792962
  atomic energy  EATOM  =     11229.46195210
  Solvation  Ediel_sol  =         0.00000000
  ---------------------------------------------------
  free energy    TOTEN  =      -111.12409685 eV

  energy without entropy =     -111.12149557  energy(sigma->0) =     -111.12279621


--------------------------------------------------------------------------------------------------------




--------------------------------------- Iteration      1(   8)  ---------------------------------------


    POTLOK:  cpu time    0.0975: real time    0.0976
    SETDIJ:  cpu time    0.0360: real time    0.0361
    EDDIAG:  cpu time    5.4240: real time    5.4312
  RMM-DIIS:  cpu time   17.0026: real time   17.0258
    ORTHCH:  cpu time    1.0275: real time    1.0288
       DOS:  cpu time    0.0061: real time    0.0063
    CHARGE:  cpu time    1.1024: real time    1.1036
    MIXING:  cpu time    0.0018: real time    0.0018
    --------------------------------------------
      LOOP:  cpu time   24.6979: real time   24.7313

 eigenvalue-minimisations  : 21504
 total energy-change (2. order) : 0.3708511E+01  (-0.2491855E+01)
 number of electron     128.0000113 magnetization       6.1319429
 augmentation part       68.5557487 magnetization       5.3401990

 Broyden mixing:
  rms(total) = 0.30651E+01    rms(broyden)= 0.30650E+01
  rms(prec ) = 0.59112E+01
  weight for this iteration     100.00

 eigenvalues of (default mixing * dielectric matrix)
  average eigenvalue GAMMA=   0.3914
  0.5106  0.5106  0.1529

 Free energy of the ion-electron system (eV)
  ---------------------------------------------------
  alpha Z        PSCENC =       532.62450265
  Ewald energy   TEWEN  =     -9286.36542531
  -Hartree energ DENC   =     -2949.15891008
  -exchange      EXHF   =         0.00000000
  -V(xc)+E(xc)   XCENC  =        70.49268017
  PAW double counting   =     11758.90482997   -12080.11790482
  entropy T*S    EENTRO =        -0.00296340
  eigenvalues    EBANDS =       616.74565296
  atomic energy  EATOM  =     11229.46195210
  Solvation  Ediel_sol  =         0.00000000
  ---------------------------------------------------
  free energy    TOTEN  =      -107.41558575 eV

  energy without entropy =     -107.41262236  energy(sigma->0) =     -107.41410406


--------------------------------------------------------------------------------------------------------




--------------------------------------- Iteration      1(   9)  ---------------------------------------


    POTLOK:  cpu time    0.1045: real time    0.1053
    SETDIJ:  cpu time    0.0377: real time    0.0377
    EDDIAG:  cpu time    5.4652: real time    5.4723
  RMM-DIIS:  cpu time   17.0451: real time   17.0685
    ORTHCH:  cpu time    1.0316: real time    1.0328
       DOS:  cpu time    0.0058: real time    0.0060
    CHARGE:  cpu time    1.1071: real time    1.1081
    MIXING:  cpu time    0.0018: real time    0.0018
    --------------------------------------------
      LOOP:  cpu time   24.7988: real time   24.8326

 eigenvalue-minimisations  : 21553
 total energy-change (2. order) : 0.3675668E+01  (-0.6816988E+00)
 number of electron     128.0000101 magnetization       6.3889241
 augmentation part       66.9646285 magnetization       4.3373079

 Broyden mixing:
  rms(total) = 0.18261E+01    rms(broyden)= 0.18260E+01
  rms(prec ) = 0.29267E+01
  weight for this iteration     100.00

 eigenvalues of (default mixing * dielectric matrix)
  average eigenvalue GAMMA=   0.4592
  0.9175  0.5264  0.2609  0.1320

 Free energy of the ion-electron system (eV)
  ---------------------------------------------------
  alpha Z        PSCENC =       532.62450265
  Ewald energy   TEWEN  =     -9286.36542531
  -Hartree energ DENC   =     -2963.77964769
  -exchange      EXHF   =         0.00000000
  -V(xc)+E(xc)   XCENC  =        71.39363876
  PAW double counting   =     11949.67767113   -12279.50631938
  entropy T*S    EENTRO =        -0.00383425
  eigenvalues    EBANDS =       642.75754394
  atomic energy  EATOM  =     11229.46195210
  Solvation  Ediel_sol  =         0.00000000
  ---------------------------------------------------
  free energy    TOTEN  =      -103.73991805 eV

  energy without entropy =     -103.73608381  energy(sigma->0) =     -103.73800093


--------------------------------------------------------------------------------------------------------




--------------------------------------- Iteration      1(  10)  ---------------------------------------


    POTLOK:  cpu time    0.0978: real time    0.0980
    SETDIJ:  cpu time    0.0362: real time    0.0363
    EDDIAG:  cpu time    5.4745: real time    5.4821
  RMM-DIIS:  cpu time   17.1508: real time   17.1748
    ORTHCH:  cpu time    1.0288: real time    1.0300
       DOS:  cpu time    0.0060: real time    0.0062
    CHARGE:  cpu time    1.0957: real time    1.0968
    MIXING:  cpu time    0.0020: real time    0.0020
    --------------------------------------------
      LOOP:  cpu time   24.8918: real time   24.9261

 eigenvalue-minimisations  : 21508
 total energy-change (2. order) : 0.9775956E+00  (-0.1824907E+00)
 number of electron     128.0000090 magnetization       7.0343557
 augmentation part       67.6473168 magnetization       4.7303092

 Broyden mixing:
  rms(total) = 0.10298E+01    rms(broyden)= 0.10297E+01
  rms(prec ) = 0.12588E+01
  weight for this iteration     100.00

 eigenvalues of (default mixing * dielectric matrix)
  average eigenvalue GAMMA=   0.4567
  1.0008  0.4685  0.4685  0.2101  0.1359

 Free energy of the ion-electron system (eV)
  ---------------------------------------------------
  alpha Z        PSCENC =       532.62450265
  Ewald energy   TEWEN  =     -9286.36542531
  -Hartree energ DENC   =     -2950.73170552
  -exchange      EXHF   =         0.00000000
  -V(xc)+E(xc)   XCENC  =        71.40696821
  PAW double counting   =     12233.74941747   -12566.93007813
  entropy T*S    EENTRO =        -0.00243100
  eigenvalues    EBANDS =       634.02447706
  atomic energy  EATOM  =     11229.46195210
  Solvation  Ediel_sol  =         0.00000000
  ---------------------------------------------------
  free energy    TOTEN  =      -102.76232247 eV

  energy without entropy =     -102.75989147  energy(sigma->0) =     -102.76110697


--------------------------------------------------------------------------------------------------------




--------------------------------------- Iteration      1(  11)  ---------------------------------------


    POTLOK:  cpu time    0.0982: real time    0.0984
    SETDIJ:  cpu time    0.0363: real time    0.0364
    EDDIAG:  cpu time    5.4921: real time    5.4994
  RMM-DIIS:  cpu time   17.1880: real time   17.2120
    ORTHCH:  cpu time    1.0315: real time    1.0327
       DOS:  cpu time    0.0059: real time    0.0061
    CHARGE:  cpu time    1.0877: real time    1.0889
    MIXING:  cpu time    0.0021: real time    0.0021
    --------------------------------------------
      LOOP:  cpu time   24.9418: real time   24.9760

 eigenvalue-minimisations  : 21585
 total energy-change (2. order) :-0.1760801E+00  (-0.3669039E-01)
 number of electron     128.0000093 magnetization       7.7141702
 augmentation part       67.5465451 magnetization       5.3865949

 Broyden mixing:
  rms(total) = 0.69566E+00    rms(broyden)= 0.69566E+00
  rms(prec ) = 0.77533E+00
  weight for this iteration     100.00

 eigenvalues of (default mixing * dielectric matrix)
  average eigenvalue GAMMA=   0.5250
  0.9844  0.6723  0.6723  0.4879  0.2016  0.1317

 Free energy of the ion-electron system (eV)
  ---------------------------------------------------
  alpha Z        PSCENC =       532.62450265
  Ewald energy   TEWEN  =     -9286.36542531
  -Hartree energ DENC   =     -2949.70813321
  -exchange      EXHF   =         0.00000000
  -V(xc)+E(xc)   XCENC  =        72.64137281
  PAW double counting   =     12380.11962347   -12716.50457624
  entropy T*S    EENTRO =        -0.00242774
  eigenvalues    EBANDS =       634.79470894
  atomic energy  EATOM  =     11229.46195210
  Solvation  Ediel_sol  =         0.00000000
  ---------------------------------------------------
  free energy    TOTEN  =      -102.93840254 eV

  energy without entropy =     -102.93597480  energy(sigma->0) =     -102.93718867


--------------------------------------------------------------------------------------------------------




--------------------------------------- Iteration      1(  12)  ---------------------------------------


    POTLOK:  cpu time    0.1042: real time    0.1054
    SETDIJ:  cpu time    0.0378: real time    0.0378
    EDDIAG:  cpu time    5.5353: real time    5.5401
  RMM-DIIS:  cpu time   17.2037: real time   17.2196
    ORTHCH:  cpu time    1.0373: real time    1.0381
       DOS:  cpu time    0.0060: real time    0.0060
    CHARGE:  cpu time    1.0976: real time    1.0983
    MIXING:  cpu time    0.0022: real time    0.0022
    --------------------------------------------
      LOOP:  cpu time   25.0240: real time   25.0476

 eigenvalue-minimisations  : 21606
 total energy-change (2. order) :-0.2737565E+00  (-0.3637769E-01)
 number of electron     128.0000097 magnetization       8.9095210
 augmentation part       67.4360230 magnetization       6.6403235

 Broyden mixing:
  rms(total) = 0.63321E+00    rms(broyden)= 0.63320E+00
  rms(prec ) = 0.85114E+00
  weight for this iteration     100.00

 eigenvalues of (default mixing * dielectric matrix)
  average eigenvalue GAMMA=   0.6390
  1.7369  0.7696  0.7696  0.5889  0.1319  0.2059  0.2704

 Free energy of the ion-electron system (eV)
  ---------------------------------------------------
  alpha Z        PSCENC =       532.62450265
  Ewald energy   TEWEN  =     -9286.36542531
  -Hartree energ DENC   =     -2949.26089666
  -exchange      EXHF   =         0.00000000
  -V(xc)+E(xc)   XCENC  =        73.76320912
  PAW double counting   =     12523.71209018   -12863.16232136
  entropy T*S    EENTRO =        -0.00212468
  eigenvalues    EBANDS =       636.01685496
  atomic energy  EATOM  =     11229.46195210
  Solvation  Ediel_sol  =         0.00000000
  ---------------------------------------------------
  free energy    TOTEN  =      -103.21215900 eV

  energy without entropy =     -103.21003432  energy(sigma->0) =     -103.21109666


--------------------------------------------------------------------------------------------------------




--------------------------------------- Iteration      1(  13)  ---------------------------------------


    POTLOK:  cpu time    0.0995: real time    0.0996
    SETDIJ:  cpu time    0.0365: real time    0.0365
    EDDIAG:  cpu time    5.5534: real time    5.5584
  RMM-DIIS:  cpu time   17.6062: real time   17.6223
    ORTHCH:  cpu time    1.0375: real time    1.0383
       DOS:  cpu time    0.0059: real time    0.0060
    CHARGE:  cpu time    1.0966: real time    1.0974
    MIXING:  cpu time    0.0023: real time    0.0023
    --------------------------------------------
      LOOP:  cpu time   25.4379: real time   25.4608

 eigenvalue-minimisations  : 21957
 total energy-change (2. order) :-0.7028629E-01  (-0.3497231E-01)
 number of electron     128.0000095 magnetization       9.0574459
 augmentation part       67.7305101 magnetization       6.6068182

 Broyden mixing:
  rms(total) = 0.24641E+00    rms(broyden)= 0.24640E+00
  rms(prec ) = 0.36014E+00
  weight for this iteration     100.00

 eigenvalues of (default mixing * dielectric matrix)
  average eigenvalue GAMMA=   0.6720
  1.9901  0.8568  0.8568  0.5390  0.5390  0.1320  0.2051  0.2575

 Free energy of the ion-electron system (eV)
  ---------------------------------------------------
  alpha Z        PSCENC =       532.62450265
  Ewald energy   TEWEN  =     -9286.36542531
  -Hartree energ DENC   =     -2940.99090177
  -exchange      EXHF   =         0.00000000
  -V(xc)+E(xc)   XCENC  =        75.27306175
  PAW double counting   =     12807.22116595   -13150.57636930
  entropy T*S    EENTRO =        -0.00206757
  eigenvalues    EBANDS =       630.07163621
  atomic energy  EATOM  =     11229.46195210
  Solvation  Ediel_sol  =         0.00000000
  ---------------------------------------------------
  free energy    TOTEN  =      -103.28244530 eV

  energy without entropy =     -103.28037773  energy(sigma->0) =     -103.28141151


--------------------------------------------------------------------------------------------------------




--------------------------------------- Iteration      1(  14)  ---------------------------------------


    POTLOK:  cpu time    0.0986: real time    0.0987
    SETDIJ:  cpu time    0.0364: real time    0.0364
    EDDIAG:  cpu time    5.5817: real time    5.5867
  RMM-DIIS:  cpu time   19.3059: real time   19.3242
    ORTHCH:  cpu time    1.0353: real time    1.0376
       DOS:  cpu time    0.0061: real time    0.0062
    CHARGE:  cpu time    1.1063: real time    1.1072
    MIXING:  cpu time    0.0025: real time    0.0025
    --------------------------------------------
      LOOP:  cpu time   27.1728: real time   27.1994

 eigenvalue-minimisations  : 24068
 total energy-change (2. order) :-0.6869822E-02  (-0.9296076E-02)
 number of electron     128.0000096 magnetization       9.1058873
 augmentation part       67.6981954 magnetization       6.6689571

 Broyden mixing:
  rms(total) = 0.17586E+00    rms(broyden)= 0.17586E+00
  rms(prec ) = 0.27139E+00
  weight for this iteration     100.00

 eigenvalues of (default mixing * dielectric matrix)
  average eigenvalue GAMMA=   0.6711
  2.0691  0.9416  0.9416  0.5405  0.5405  0.4132  0.1319  0.2055  0.2560

 Free energy of the ion-electron system (eV)
  ---------------------------------------------------
  alpha Z        PSCENC =       532.62450265
  Ewald energy   TEWEN  =     -9286.36542531
  -Hartree energ DENC   =     -2941.13344557
  -exchange      EXHF   =         0.00000000
  -V(xc)+E(xc)   XCENC  =        75.37528924
  PAW double counting   =     12859.94320024   -13204.10623002
  entropy T*S    EENTRO =        -0.00200286
  eigenvalues    EBANDS =       630.91284443
  atomic energy  EATOM  =     11229.46195210
  Solvation  Ediel_sol  =         0.00000000
  ---------------------------------------------------
  free energy    TOTEN  =      -103.28931512 eV

  energy without entropy =     -103.28731226  energy(sigma->0) =     -103.28831369


--------------------------------------------------------------------------------------------------------




--------------------------------------- Iteration      1(  15)  ---------------------------------------


    POTLOK:  cpu time    0.1011: real time    0.1048
    SETDIJ:  cpu time    0.0362: real time    0.0362
    EDDIAG:  cpu time    5.6133: real time    5.6212
  RMM-DIIS:  cpu time   17.6889: real time   17.7143
    ORTHCH:  cpu time    1.0335: real time    1.0345
       DOS:  cpu time    0.0058: real time    0.0058
    CHARGE:  cpu time    1.1150: real time    1.1159
    MIXING:  cpu time    0.0026: real time    0.0026
    --------------------------------------------
      LOOP:  cpu time   25.5965: real time   25.6354

 eigenvalue-minimisations  : 21748
 total energy-change (2. order) : 0.7758685E-02  (-0.2739334E-02)
 number of electron     128.0000096 magnetization       9.1739396
 augmentation part       67.6948151 magnetization       6.7194106

 Broyden mixing:
  rms(total) = 0.99499E-01    rms(broyden)= 0.99498E-01
  rms(prec ) = 0.14970E+00
  weight for this iteration     100.00

 eigenvalues of (default mixing * dielectric matrix)
  average eigenvalue GAMMA=   0.7282
  2.2977  1.0898  1.0898  0.6903  0.6903  0.5658  0.1319  0.2053  0.2539  0.2670

 Free energy of the ion-electron system (eV)
  ---------------------------------------------------
  alpha Z        PSCENC =       532.62450265
  Ewald energy   TEWEN  =     -9286.36542531
  -Hartree energ DENC   =     -2940.93456913
  -exchange      EXHF   =         0.00000000
  -V(xc)+E(xc)   XCENC  =        75.33329636
  PAW double counting   =     12883.73604699   -13228.10169810
  entropy T*S    EENTRO =        -0.00214336
  eigenvalues    EBANDS =       630.96648137
  atomic energy  EATOM  =     11229.46195210
  Solvation  Ediel_sol  =         0.00000000
  ---------------------------------------------------
  free energy    TOTEN  =      -103.28155643 eV

  energy without entropy =     -103.27941308  energy(sigma->0) =     -103.28048475


--------------------------------------------------------------------------------------------------------




--------------------------------------- Iteration      1(  16)  ---------------------------------------


    POTLOK:  cpu time    0.0990: real time    0.0991
    SETDIJ:  cpu time    0.0365: real time    0.0365
    EDDIAG:  cpu time    5.6300: real time    5.6379
  RMM-DIIS:  cpu time   18.7159: real time   18.7392
    ORTHCH:  cpu time    1.0357: real time    1.0369
       DOS:  cpu time    0.0061: real time    0.0062
    CHARGE:  cpu time    1.1010: real time    1.1020
[...]
     84      12.1841      0.00000


--------------------------------------------------------------------------------------------------------


 soft charge-density along one line, spin component           1
         0         1         2         3         4         5         6         7         8         9
 total charge-density along one line

 soft charge-density along one line, spin component           2
         0         1         2         3         4         5         6         7         8         9
 total charge-density along one line

 pseudopotential strength for first ion, spin component:           1
 -1.706   0.004  -0.015   0.012  -0.000  -2.338   0.004  -0.014
  0.004  -1.700   0.003  -0.013  -0.004   0.004  -2.333   0.003
 -0.015   0.003  -1.740  -0.020   0.010  -0.014   0.003  -2.371
  0.012  -0.013  -0.020  -1.712  -0.034   0.012  -0.013  -0.019
 -0.000  -0.004   0.010  -0.034  -1.738  -0.000  -0.004   0.009
 -2.338   0.004  -0.014   0.012  -0.000  -2.901   0.004  -0.014
  0.004  -2.333   0.003  -0.013  -0.004   0.004  -2.896   0.003
 -0.014   0.003  -2.371  -0.019   0.009  -0.014   0.003  -2.932
  0.012  -0.013  -0.019  -2.344  -0.033   0.011  -0.012  -0.018
 -0.000  -0.004   0.009  -0.033  -2.369  -0.000  -0.004   0.009
 -0.004  -0.002  -0.000   0.007   0.002  -0.003  -0.002  -0.000
 -0.007  -0.003  -0.001   0.013   0.003  -0.006  -0.003  -0.001
  0.001  -0.005  -0.000  -0.000  -0.000   0.001  -0.005  -0.000
 -0.000   0.004  -0.010   0.001  -0.000  -0.001   0.003  -0.010
  0.004  -0.000  -0.001  -0.006   0.001   0.003  -0.001  -0.001
  0.001  -0.005  -0.000  -0.001  -0.000   0.001  -0.005  -0.000
 -0.001   0.005  -0.010   0.001  -0.000  -0.001   0.005  -0.010
  0.005  -0.001  -0.001  -0.005   0.002   0.005  -0.001  -0.001
 pseudopotential strength for first ion, spin component:           2
 -1.517  -0.006   0.026   0.005   0.000  -2.159  -0.006   0.025
 -0.006  -1.513   0.003  -0.003  -0.007  -0.006  -2.155   0.003
  0.026   0.003  -1.467   0.017   0.008   0.025   0.003  -2.110
  0.005  -0.003   0.017  -1.528   0.027   0.005  -0.003   0.016
  0.000  -0.007   0.008   0.027  -1.454   0.000  -0.007   0.007
 -2.159  -0.006   0.025   0.005   0.000  -2.730  -0.006   0.024
 -0.006  -2.155   0.003  -0.003  -0.007  -0.006  -2.726   0.003
  0.025   0.003  -2.110   0.016   0.007   0.024   0.003  -2.683
  0.005  -0.003   0.016  -2.169   0.026   0.004  -0.003   0.016
  0.000  -0.007   0.007   0.026  -2.098   0.000  -0.007   0.007
  0.004  -0.002   0.001  -0.006   0.002   0.004  -0.002   0.001
  0.006  -0.003   0.002  -0.011   0.003   0.006  -0.003   0.002
  0.000  -0.010   0.001   0.002   0.001   0.000  -0.010   0.001
  0.002  -0.004  -0.012   0.001  -0.000   0.001  -0.004  -0.012
 -0.004   0.002   0.000  -0.010   0.000  -0.004   0.001   0.000
  0.000  -0.011   0.001   0.002   0.002   0.000  -0.011   0.001
  0.002  -0.006  -0.013   0.001   0.000   0.002  -0.005  -0.012
 -0.006   0.002   0.000  -0.011  -0.000  -0.005   0.002   0.000
 total augmentation occupancy for first ion, spin component:           1
  1.979   0.034   0.076   0.032   0.005  -0.512  -0.023  -0.063  -0.013  -0.003  -0.080   0.029  -0.008   0.045  -0.008   0.000
  0.034   2.048  -0.001   0.063  -0.008  -0.023  -0.561  -0.002  -0.069   0.009   0.033  -0.003   0.025  -0.006   0.042  -0.012
  0.076  -0.001   2.725   0.016   0.035  -0.063  -0.002  -1.037  -0.014  -0.023  -0.027   0.006   0.011  -0.070  -0.014  -0.001
  0.032   0.063   0.016   2.048  -0.009  -0.013  -0.069  -0.014  -0.562  -0.002  -0.007  -0.003   0.039   0.011   0.023  -0.008
  0.005  -0.008   0.035  -0.009   2.833  -0.003   0.009  -0.023  -0.002  -1.103   0.006   0.002   0.016  -0.001  -0.001  -0.001
 -0.512  -0.023  -0.063  -0.013  -0.003   0.828   0.016   0.042   0.004   0.002   0.049  -0.019   0.004  -0.026   0.009  -0.000
 -0.023  -0.561  -0.002  -0.069   0.009   0.016   0.861   0.003   0.070  -0.008  -0.020   0.002   0.006   0.008  -0.025   0.001
 -0.063  -0.002  -1.037  -0.014  -0.023   0.042   0.003   1.106   0.011   0.017   0.022  -0.005  -0.009   0.070   0.009   0.001
 -0.013  -0.069  -0.014  -0.562  -0.002   0.004   0.070   0.011   0.861   0.005   0.006   0.002  -0.023  -0.007   0.007   0.005
 -0.003   0.009  -0.023  -0.002  -1.103   0.002  -0.008   0.017   0.005   1.136  -0.004  -0.001  -0.014   0.000   0.001   0.001
 -0.080   0.033  -0.027  -0.007   0.006   0.049  -0.020   0.022   0.006  -0.004   2.127  -0.282   0.007   0.060  -0.003  -0.001
  0.029  -0.003   0.006  -0.003   0.002  -0.019   0.002  -0.005   0.002  -0.001  -0.282   0.048  -0.001   0.001   0.000   0.000
 -0.008   0.025   0.011   0.039   0.016   0.004   0.006  -0.009  -0.023  -0.014   0.007  -0.001   0.257  -0.000   0.002  -0.027
  0.045  -0.006  -0.070   0.011  -0.001  -0.026   0.008   0.070  -0.007   0.000   0.060   0.001  -0.000   0.261  -0.000   0.000
 -0.008   0.042  -0.014   0.023  -0.001   0.009  -0.025   0.009   0.007   0.001  -0.003   0.000   0.002  -0.000   0.256  -0.002
  0.000  -0.012  -0.001  -0.008  -0.001  -0.000   0.001   0.001   0.005   0.001  -0.001   0.000  -0.027   0.000  -0.002   0.003
 -0.008   0.000  -0.006  -0.001   0.000   0.005  -0.000  -0.008   0.000  -0.000  -0.007  -0.000   0.000  -0.027   0.000  -0.000
  0.000  -0.008   0.000  -0.012  -0.000  -0.000   0.005  -0.000   0.001   0.000   0.001  -0.000  -0.002   0.000  -0.026   0.000
 total augmentation occupancy for first ion, spin component:           2
  0.350   0.184   0.209   0.013   0.004  -0.219  -0.171  -0.122  -0.023  -0.003   0.065  -0.000  -0.006   0.040  -0.079   0.000
  0.184   0.313  -0.054  -0.067  -0.038  -0.171  -0.187   0.046   0.071   0.028  -0.026  -0.001  -0.044  -0.075   0.045   0.001
  0.209  -0.054   0.521   0.159  -0.007  -0.122   0.046  -0.257  -0.083   0.003   0.019   0.003  -0.018   0.019   0.018  -0.000
  0.013  -0.067   0.159   0.304   0.266  -0.023   0.071  -0.082  -0.184  -0.138  -0.096   0.003   0.044   0.004  -0.044  -0.002
  0.004  -0.038  -0.007   0.266   0.566  -0.003   0.027   0.004  -0.141  -0.282  -0.010  -0.001  -0.036   0.001  -0.007  -0.000
 -0.219  -0.171  -0.122  -0.023  -0.003   0.114   0.147   0.063   0.027   0.002  -0.044   0.007   0.007  -0.031   0.049  -0.001
 -0.171  -0.187   0.046   0.071   0.027   0.147   0.088  -0.037  -0.067  -0.019   0.020  -0.002   0.028   0.046  -0.034  -0.002
 -0.122   0.046  -0.257  -0.082   0.004   0.063  -0.037   0.085   0.033  -0.001  -0.014  -0.000   0.017  -0.020  -0.011  -0.000
 -0.023   0.071  -0.083  -0.184  -0.141   0.027  -0.067   0.033   0.088   0.056   0.060  -0.012  -0.034  -0.002   0.028   0.003
 -0.003   0.028   0.003  -0.138  -0.282   0.002  -0.019  -0.001   0.056   0.096   0.006   0.000   0.034  -0.001   0.003  -0.001
  0.065  -0.026   0.019  -0.096  -0.010  -0.044   0.020  -0.014   0.060   0.006  -0.040   0.010  -0.009  -0.006   0.007  -0.002
 -0.000  -0.001   0.003   0.003  -0.001   0.007  -0.002  -0.000  -0.012   0.000   0.010  -0.002  -0.005  -0.002  -0.001   0.001
 -0.006  -0.044  -0.018   0.044  -0.036   0.007   0.028   0.017  -0.034   0.034  -0.009  -0.005   0.002   0.003  -0.009  -0.000
  0.040  -0.075   0.019   0.004   0.001  -0.031   0.046  -0.020  -0.002  -0.001  -0.006  -0.002   0.003  -0.004   0.012  -0.000
 -0.079   0.045   0.018  -0.044  -0.007   0.049  -0.034  -0.011   0.028   0.003   0.007  -0.001  -0.009   0.012   0.003   0.001
  0.000   0.001  -0.000  -0.002  -0.000  -0.001  -0.002  -0.000   0.003  -0.001  -0.002   0.001  -0.000  -0.000   0.001   0.000
 -0.002   0.003  -0.002  -0.000   0.000   0.003  -0.005   0.002   0.000  -0.000  -0.001   0.000  -0.000   0.000  -0.002   0.000
  0.003  -0.002  -0.001   0.001  -0.001  -0.005   0.003   0.001  -0.002   0.000  -0.001   0.000   0.001  -0.002  -0.000  -0.000


------------------------ aborting loop because EDIFF is reached ----------------------------------------





 total charge     

# of ion       s       p       d       tot
------------------------------------------
    1        0.475   0.426   8.376   9.277
    2        0.473   0.425   8.391   9.289
    3        0.474   0.425   8.374   9.273
    4        0.473   0.427   8.379   9.279
    5        0.473   0.427   8.379   9.279
    6        0.474   0.425   8.374   9.273
    7        0.473   0.425   8.391   9.289
    8        0.475   0.426   8.376   9.277
    9        0.308   0.289   4.934   5.532
   10        0.315   0.299   4.935   5.549
   11        0.340   0.348   4.942   5.630
   12        0.347   0.344   4.909   5.599
   13        0.341   0.344   4.978   5.663
   14        0.353   0.340   4.961   5.654
   15        1.242   1.730   0.300   3.272
   16        1.254   1.737   0.309   3.300
--------------------------------------------------
tot          8.289   8.838  97.309 114.436



 magnetization (x)

# of ion       s       p       d       tot
------------------------------------------
    1       -0.007   0.000   0.260   0.254
    2       -0.005   0.002   0.255   0.252
    3       -0.004  -0.002   0.244   0.238
    4       -0.003   0.003   0.262   0.262
    5       -0.003   0.003   0.262   0.262
    6       -0.004  -0.002   0.244   0.238
    7       -0.005   0.002   0.255   0.252
    8       -0.007   0.000   0.260   0.254
    9       -0.037  -0.026  -3.589  -3.652
   10        0.025   0.034   3.579   3.637
   11       -0.036  -0.049  -3.303  -3.388
   12        0.029   0.049   3.462   3.540
   13        0.022   0.018   3.351   3.391
   14        0.031   0.012   3.463   3.505
   15       -0.002   0.048  -0.001   0.044
   16        0.012  -0.080  -0.004  -0.071
--------------------------------------------------
tot          0.006   0.011   9.001   9.019

    CHARGE:  cpu time    1.1492: real time    1.1505
    FORLOC:  cpu time    0.0072: real time    0.0072
    FORNL :  cpu time    8.5672: real time    8.5795
    STRESS:  cpu time   25.7825: real time   25.8209
    FORCOR:  cpu time    0.1041: real time    0.1042
    FORHAR:  cpu time    0.0165: real time    0.0165
    MIXING:  cpu time    0.0017: real time    0.0017
    OFIELD:  cpu time    0.0000: real time    0.0000

  FORCE on cell =-STRESS in cart. coord.  units (eV):
  Direction    XX          YY          ZZ          XY          YZ          ZX
  --------------------------------------------------------------------------------------
  Alpha Z   532.62450   532.62450   532.62450
  Ewald   -2970.00547 -2971.84293 -3344.28232     0.00000    -0.00000    -0.00000
  Hartree  1096.06052  1095.37393   749.07194    -0.00000    -0.00000    -0.00000
  E(xc)    -670.75134  -670.75012  -670.88058     0.00000    -0.00000     0.00000
  Local    -483.39706  -482.78771   238.58931     0.00000    -0.00000     0.00000
  n-local  -147.21154  -147.53632  -146.96698    -0.20376    -0.26402    -0.19030
  augment  1578.58075  1580.71941  1578.54218    -0.00000     0.00000     0.00000
  Kinetic  1062.70712  1064.46503  1062.92264     1.12710     1.09264     0.51767
  Fock        0.00000     0.00000     0.00000     0.00000     0.00000     0.00000
  -------------------------------------------------------------------------------------
  Total      -1.39251     0.26580    -0.37931     0.00000     0.00000     0.00000
  in kB     -10.56047     2.01579    -2.87658     0.00000     0.00000     0.00000
  external pressure =       -3.81 kB  Pullay stress =        0.00 kB


 VOLUME and BASIS-vectors are now :
 -----------------------------------------------------------------------------
  energy-cutoff  :      550.00
  volume of cell :      211.26
      direct lattice vectors                 reciprocal lattice vectors
     5.955826966  0.000000000  0.000000000     0.167902796  0.000000000  0.000000000
     0.000000000  5.955826966  0.000000000     0.000000000  0.167902796  0.000000000
     0.000000000  0.000000000  5.955826966     0.000000000  0.000000000  0.167902796

  length of vectors
     5.955826966  5.955826966  5.955826966     0.167902796  0.167902796  0.167902796


 FORCES acting on ions
    electron-ion (+dipol)            ewald-force                    non-local-force                 convergence-correction
 -----------------------------------------------------------------------------------------------
   -.526E+01 0.153E+02 0.180E+03   0.522E+01 -.153E+02 -.178E+03   0.758E-01 0.519E-01 -.258E+01   -.397E-01 -.422E-01 0.250E-01
   0.526E+01 0.153E+02 0.180E+03   -.522E+01 -.153E+02 -.178E+03   -.758E-01 0.519E-01 -.258E+01   0.397E-01 -.422E-01 0.250E-01
   -.526E+01 -.153E+02 0.180E+03   0.522E+01 0.153E+02 -.178E+03   0.758E-01 -.519E-01 -.258E+01   -.397E-01 0.422E-01 0.250E-01
   0.526E+01 -.153E+02 0.180E+03   -.522E+01 0.153E+02 -.178E+03   -.758E-01 -.519E-01 -.258E+01   0.397E-01 0.422E-01 0.250E-01
   -.526E+01 0.153E+02 -.180E+03   0.522E+01 -.153E+02 0.178E+03   0.758E-01 0.519E-01 0.258E+01   -.397E-01 -.422E-01 -.250E-01
   0.526E+01 0.153E+02 -.180E+03   -.522E+01 -.153E+02 0.178E+03   -.758E-01 0.519E-01 0.258E+01   0.397E-01 -.422E-01 -.250E-01
   -.526E+01 -.153E+02 -.180E+03   0.522E+01 0.153E+02 0.178E+03   0.758E-01 -.519E-01 0.258E+01   -.397E-01 0.422E-01 -.250E-01
   0.526E+01 -.153E+02 -.180E+03   -.522E+01 0.153E+02 0.178E+03   -.758E-01 -.519E-01 0.258E+01   0.397E-01 0.422E-01 -.250E-01
   0.226E-12 0.375E-14 -.691E-12   -.209E-13 -.651E-14 0.117E-13   0.000E+00 0.000E+00 0.000E+00   -.783E-12 0.595E-12 -.103E-11
   -.243E-13 0.206E-12 -.121E-12   -.116E-14 -.267E-13 -.168E-13   0.000E+00 0.000E+00 0.000E+00   -.162E-11 -.405E-12 -.423E-12
   -.202E-13 -.540E-13 0.203E-12   -.463E-13 0.746E-15 0.437E-13   0.000E+00 0.000E+00 0.000E+00   0.140E-11 -.334E-12 0.308E-15
   0.219E-12 -.392E-13 0.160E-11   0.890E-13 0.158E-13 0.172E-13   0.000E+00 0.000E+00 0.000E+00   -.141E-11 -.344E-12 -.158E-14
   0.212E-12 0.229E-12 0.951E-12   -.563E-13 -.102E-12 0.152E-13   0.000E+00 0.000E+00 0.000E+00   0.771E-12 0.572E-12 -.545E-12
   -.275E-13 0.202E-12 0.190E-12   -.405E-13 0.550E-13 -.398E-13   0.000E+00 0.000E+00 0.000E+00   -.784E-12 0.588E-12 -.520E-12
   -.115E-13 -.149E-13 -.463E-13   -.203E-14 0.164E-13 -.121E-13   0.000E+00 0.000E+00 0.000E+00   0.220E-12 0.143E-12 -.218E-12
   0.246E-13 -.478E-12 -.326E-13   -.821E-14 0.696E-14 -.145E-14   0.000E+00 0.000E+00 0.000E+00   0.303E-12 -.101E-12 -.830E-13
 -----------------------------------------------------------------------------------------------
   0.952E-11 0.361E-10 -.116E-09   0.596E-14 -.844E-14 0.131E-12   -.278E-16 -.694E-17 -.133E-14   -.547E-12 -.707E-11 0.238E-10


 POSITION                                       TOTAL-FORCE (eV/Angst)
 -----------------------------------------------------------------------------------
      1.48411      1.50564      1.60218        -0.006388      0.002502     -0.004317
      4.47171      1.50564      1.60218         0.006388      0.002502     -0.004317
      1.48411      4.45018      1.60218        -0.006388     -0.002502     -0.004317
      4.47171      4.45018      1.60218         0.006388     -0.002502     -0.004317
      1.48411      1.50564      4.35365        -0.006388      0.002502      0.004317
      4.47171      1.50564      4.35365         0.006388      0.002502      0.004317
      1.48411      4.45018      4.35365        -0.006388     -0.002502      0.004317
      4.47171      4.45018      4.35365         0.006388     -0.002502      0.004317
      2.97791      0.00000      0.00000         0.000000     -0.000000      0.000000
      0.00000      2.97791      0.00000         0.000000     -0.000000      0.000000
      0.00000      0.00000      2.97791         0.000000     -0.000000      0.000000
      2.97791      0.00000      2.97791         0.000000     -0.000000      0.000000
      2.97791      2.97791      2.97791         0.000000     -0.000000      0.000000
      0.00000      2.97791      2.97791         0.000000     -0.000000      0.000000
      0.00000      0.00000      0.00000         0.000000     -0.000000      0.000000
      2.97791      2.97791      0.00000         0.000000     -0.000000      0.000000
 -----------------------------------------------------------------------------------
    total drift:                                0.000000      0.000000     -0.000000


--------------------------------------------------------------------------------------------------------



  FREE ENERGIE OF THE ION-ELECTRON SYSTEM (eV)
  ---------------------------------------------------
  free  energy   TOTEN  =      -103.28182689 eV

  energy  without entropy=     -103.27965639  energy(sigma->0) =     -103.28074164

 d Force = 0.1681863E-03[ 0.111E-03, 0.226E-03]  d Energy = 0.2028483E-03-0.347E-04
 d Force =-0.1873928E+00[-0.203E+00,-0.171E+00]  d Ewald  =-0.1873927E+00-0.116E-06


--------------------------------------------------------------------------------------------------------


    POTLOK:  cpu time    0.1384: real time    0.1385


--------------------------------------------------------------------------------------------------------




--------------------------------------------------------------------------------------------------------


  
 reached required accuracy - stopping structural energy minimisation
     LOOP+:  cpu time  157.9897: real time  158.2069
    4ORBIT:  cpu time    0.0000: real time    0.0000



 total charge     

# of ion       s       p       d       tot
------------------------------------------
    1        0.475   0.426   8.376   9.277
    2        0.473   0.425   8.391   9.289
    3        0.474   0.425   8.374   9.273
    4        0.473   0.427   8.379   9.279
    5        0.473   0.427   8.379   9.279
    6        0.474   0.425   8.374   9.273
    7        0.473   0.425   8.391   9.289
    8        0.475   0.426   8.376   9.277
    9        0.308   0.289   4.934   5.532
   10        0.315   0.299   4.935   5.549
   11        0.340   0.348   4.942   5.630
   12        0.347   0.344   4.909   5.599
   13        0.341   0.344   4.978   5.663
   14        0.353   0.340   4.961   5.654
   15        1.242   1.730   0.300   3.272
   16        1.254   1.737   0.309   3.300
--------------------------------------------------
tot          8.289   8.838  97.309 114.436



 magnetization (x)

# of ion       s       p       d       tot
------------------------------------------
    1       -0.007   0.000   0.260   0.254
    2       -0.005   0.002   0.255   0.252
    3       -0.004  -0.002   0.244   0.238
    4       -0.003   0.003   0.262   0.262
    5       -0.003   0.003   0.262   0.262
    6       -0.004  -0.002   0.244   0.238
    7       -0.005   0.002   0.255   0.252
    8       -0.007   0.000   0.260   0.254
    9       -0.037  -0.026  -3.589  -3.652
   10        0.025   0.034   3.579   3.637
   11       -0.036  -0.049  -3.303  -3.388
   12        0.029   0.049   3.462   3.540
   13        0.022   0.018   3.351   3.391
   14        0.031   0.012   3.463   3.505
   15       -0.002   0.048  -0.001   0.044
   16        0.012  -0.080  -0.004  -0.071
--------------------------------------------------
tot          0.006   0.011   9.001   9.019


 total amount of memory used by VASP MPI-rank0   138384. kBytes
=======================================================================

   base      :      30000. kBytes
   nonlr-proj:       6804. kBytes
   fftplans  :       1269. kBytes
   grid      :       6573. kBytes
   one-center:        497. kBytes
   wavefun   :      93241. kBytes

  
  
 General timing and accounting informations for this job:
 ========================================================
  
                  Total CPU time used (sec):      995.388
                            User time (sec):      944.887
                          System time (sec):       50.501
                         Elapsed time (sec):      998.107
  
                   Maximum memory used (kb):      185652.
                   Average memory used (kb):           0.
  
                          Minor page faults:     23587698
                          Major page faults:           17
                 Voluntary context switches:         2348
