 vasp.5.4.4.18Apr17-6-g9f103f2a35 (build May 21 2018 20:56:50) complex           
 executed on             LinuxGNU date 2021.10.15  15:42:40
 running on   12 total cores
 distrk:  each k-point on   12 cores,    1 groups
 distr:  one band on NCORES_PER_BAND=   1 cores,   12 groups


--------------------------------------------------------------------------------------------------------


 INCAR:
 POTCAR:    PAW_PBE Ni 02Aug2007                  
 POTCAR:    PAW_PBE Mn 06Sep2000                  
 POTCAR:    PAW_PBE In 08Apr2002                  

 ----------------------------------------------------------------------------- 
|                                                                             |
|           W    W    AA    RRRRR   N    N  II  N    N   GGGG   !!!           |
|           W    W   A  A   R    R  NN   N  II  NN   N  G    G  !!!           |
|           W    W  A    A  R    R  N N  N  II  N N  N  G       !!!           |
|           W WW W  AAAAAA  RRRRR   N  N N  II  N  N N  G  GGG   !            |
|           WW  WW  A    A  R   R   N   NN  II  N   NN  G    G                |
|           W    W  A    A  R    R  N    N  II  N    N   GGGG   !!!           |
|                                                                             |
|      For optimal performance we recommend to set                            |
|        NCORE= 4 - approx SQRT( number of cores)                             |
|      NCORE specifies how many cores store one orbital (NPAR=cpu/NCORE).     |
|      This setting can  greatly improve the performance of VASP for DFT.     |
|      The default,   NCORE=1            might be grossly inefficient         |
|      on modern multi-core architectures or massively parallel machines.     |
|      Do your own testing !!!!                                               |
|      Unfortunately you need to use the default for GW and RPA calculations. |
|      (for HF NCORE is supported but not extensively tested yet)             |
|                                                                             |
 ----------------------------------------------------------------------------- 

 POTCAR:    PAW_PBE Ni 02Aug2007                  
   VRHFIN =Ni:                                                                  
   LEXCH  = PE                                                                  
   EATOM  =  1077.6739 eV,   79.2068 Ry                                         
                                                                                
   TITEL  = PAW_PBE Ni 02Aug2007                                                
   LULTRA =        F    use ultrasoft PP ?                                      
   IUNSCR =        1    unscreen: 0-lin 1-nonlin 2-no                           
   RPACOR =    2.000    partial core radius                                     
   POMASS =   58.690; ZVAL   =   10.000    mass and valenz                      
   RCORE  =    2.300    outmost cutoff radius                                   
   RWIGS  =    2.430; RWIGS  =    1.286    wigner-seitz radius (au A)           
   ENMAX  =  269.532; ENMIN  =  202.149 eV                                      
   RCLOC  =    1.201    cutoff for local pot                                    
   LCOR   =        T    correct aug charges                                     
   LPAW   =        T    paw PP                                                  
   EAUG   =  544.565                                                            
   DEXC   =    0.000                                                            
   RMAX   =    2.357    core radius for proj-oper                               
   RAUG   =    1.300    factor for augmentation sphere                          
   RDEP   =    2.390    radius for radial grids                                 
   RDEPT  =    1.838    core radius for aug-charge                              
                                                                                
   Atomic configuration                                                         
    9 entries                                                                   
     n  l   j            E        occ.                                          
     1  0  0.50     -8206.4253   2.0000                                         
     2  0  0.50      -976.1748   2.0000                                         
     2  1  1.50      -839.0571   6.0000                                         
     3  0  0.50      -105.9991   2.0000                                         
     3  1  1.50       -66.4603   6.0000                                         
     3  2  2.50        -4.6458   9.0000                                         
     4  0  0.50        -4.4926   1.0000                                         
     4  1  1.50        -4.0817   0.0000                                         
     4  3  2.50        -1.3606   0.0000                                         
   Description                                                                  
     l       E           TYP  RCUT    TYP  RCUT                                 
     2     -4.6457903     23  2.300                                             
     2     -6.0063729     23  2.300                                             
     0     -4.4925590     23  2.300                                             
     0      5.0102601     23  2.300                                             
     1     -2.7211652     23  2.300                                             
     1     16.5183231     23  2.300                                             
  local pseudopotential read in
  partial core-charges read in
  partial kinetic energy density read in
  atomic valenz-charges read in
  non local Contribution for L=           2  read in
    real space projection operators read in
  non local Contribution for L=           2  read in
    real space projection operators read in
  non local Contribution for L=           0  read in
    real space projection operators read in
  non local Contribution for L=           0  read in
    real space projection operators read in
  non local Contribution for L=           1  read in
    real space projection operators read in
  non local Contribution for L=           1  read in
    real space projection operators read in
    PAW grid and wavefunctions read in

   number of l-projection  operators is LMAX  =           6
   number of lm-projection operators is LMMAX =          18

 POTCAR:    PAW_PBE Mn 06Sep2000                  
   VRHFIN =Mn: d6 s1                                                            
   LEXCH  = PE                                                                  
   EATOM  =   416.7541 eV,   30.6306 Ry                                         
                                                                                
   TITEL  = PAW_PBE Mn 06Sep2000                                                
   LULTRA =        F    use ultrasoft PP ?                                      
   IUNSCR =        1    unscreen: 0-lin 1-nonlin 2-no                           
   RPACOR =    2.000    partial core radius                                     
   POMASS =   54.938; ZVAL   =    7.000    mass and valenz                      
   RCORE  =    2.300    outmost cutoff radius                                   
   RWIGS  =    2.500; RWIGS  =    1.323    wigner-seitz radius (au A)           
   ENMAX  =  269.864; ENMIN  =  202.398 eV                                      
   RCLOC  =    1.725    cutoff for local pot                                    
   LCOR   =        T    correct aug charges                                     
   LPAW   =        T    paw PP                                                  
   EAUG   =  500.711                                                            
   DEXC   =    0.000                                                            
   RMAX   =    2.343    core radius for proj-oper                               
   RAUG   =    1.300    factor for augmentation sphere                          
   RDEP   =    2.338    radius for radial grids                                 
   RDEPT  =    1.911    core radius for aug-charge                              
                                                                                
   Atomic configuration                                                         
    9 entries                                                                   
     n  l   j            E        occ.                                          
     1  0  0.50     -6424.8288   2.0000                                         
     2  0  0.50      -739.1154   2.0000                                         
     2  1  1.50      -625.3949   6.0000                                         
     3  0  0.50       -81.6100   2.0000                                         
     3  1  1.50       -50.4667   6.0000                                         
     3  2  2.50        -3.3745   6.0000                                         
     4  0  0.50        -4.1331   1.0000                                         
     4  1  0.50        -4.0817   0.0000                                         
     4  3  2.50        -1.3606   0.0000                                         
   Description                                                                  
     l       E           TYP  RCUT    TYP  RCUT                                 
     2     -3.3744664     23  2.300                                             
     2     -4.7350490     23  2.300                                             
     0     -4.1331408     23  2.300                                             
     0      7.6656614     23  2.300                                             
     1     -2.7211652     23  2.300                                             
     1     20.4087390     23  2.300                                             
  local pseudopotential read in
  partial core-charges read in
  partial kinetic energy density read in
  atomic valenz-charges read in
  non local Contribution for L=           2  read in
    real space projection operators read in
  non local Contribution for L=           2  read in
    real space projection operators read in
  non local Contribution for L=           0  read in
    real space projection operators read in
  non local Contribution for L=           0  read in
    real space projection operators read in
  non local Contribution for L=           1  read in
    real space projection operators read in
  non local Contribution for L=           1  read in
    real space projection operators read in
    PAW grid and wavefunctions read in

   number of l-projection  operators is LMAX  =           6
   number of lm-projection operators is LMMAX =          18

 POTCAR:    PAW_PBE In 08Apr2002                  
   VRHFIN =In: s2p1                                                             
   LEXCH  = PE                                                                  
   EATOM  =    53.7908 eV,    3.9535 Ry                                         
                                                                                
   TITEL  = PAW_PBE In 08Apr2002                                                
   LULTRA =        F    use ultrasoft PP ?                                      
   IUNSCR =        1    unscreen: 0-lin 1-nonlin 2-no                           
   RPACOR =    2.400    partial core radius                                     
   POMASS =  114.820; ZVAL   =    3.000    mass and valenz                      
   RCORE  =    3.100    outmost cutoff radius                                   
   RWIGS  =    3.170; RWIGS  =    1.677    wigner-seitz radius (au A)           
   ENMAX  =   95.934; ENMIN  =   71.951 eV                                      
   ICORE  =        3    local potential                                         
   LCOR   =        T    correct aug charges                                     
   LPAW   =        T    paw PP                                                  
   EAUG   =  237.125                                                            
   DEXC   =    0.000                                                            
   RMAX   =    3.168    core radius for proj-oper                               
   RAUG   =    1.300    factor for augmentation sphere                          
   RDEP   =    3.187    radius for radial grids                                 
   RDEPT  =    2.711    core radius for aug-charge                              
                                                                                
   Atomic configuration                                                         
   13 entries                                                                   
     n  l   j            E        occ.                                          
     1  0  0.50    -27747.9169   2.0000                                         
     2  0  0.50     -4154.4438   2.0000                                         
     2  1  1.50     -3728.4305   6.0000                                         
     3  0  0.50      -788.3680   2.0000                                         
     3  1  1.50      -648.9215   6.0000                                         
     3  2  2.50      -432.5893  10.0000                                         
     4  0  0.50      -119.6363   2.0000                                         
     4  1  1.50       -78.1086   6.0000                                         
     4  2  2.50       -18.6227  10.0000                                         
     5  0  0.50        -8.2107   2.0000                                         
     5  1  0.50        -2.5185   1.0000                                         
     5  2  2.50        -1.3606   0.0000                                         
     4  3  2.50        -2.7212   0.0000                                         
   Description                                                                  
     l       E           TYP  RCUT    TYP  RCUT                                 
     0     -8.2107306     23  3.100                                             
     0     -6.1485975     23  3.100                                             
     1     -2.5184867     23  3.100                                             
     1      3.2427302     23  3.100                                             
     2     -1.3605826     23  3.100                                             
     3     -1.3605826     23  3.100                                             
  local pseudopotential read in
  partial core-charges read in
  partial kinetic energy density read in
  atomic valenz-charges read in
  non local Contribution for L=           0  read in
    real space projection operators read in
  non local Contribution for L=           0  read in
    real space projection operators read in
  non local Contribution for L=           1  read in
    real space projection operators read in
  non local Contribution for L=           1  read in
    real space projection operators read in
  non local Contribution for L=           2  read in
    real space projection operators read in
    PAW grid and wavefunctions read in

   number of l-projection  operators is LMAX  =           5
   number of lm-projection operators is LMMAX =          13

 Optimization of the real space projectors (new method)

 maximal supplied QI-value         = 16.25
 optimisation between [QCUT,QGAM] = [ 11.86, 23.89] = [ 39.41,159.82] Ry 
 Optimized for a Real-space Cutoff    1.33 Angstroem

   l    n(q)    QCUT    max X(q) W(low)/X(q) W(high)/X(q)  e(spline) 
   2      9    11.864    60.317    0.21E-03    0.51E-03    0.25E-06
   2      9    11.864    55.921    0.21E-03    0.51E-03    0.26E-06
   0      9    11.864    51.690    0.22E-03    0.30E-04    0.17E-06
   0      9    11.864    30.015    0.20E-03    0.28E-04    0.15E-06
   1      9    11.864    18.849    0.76E-04    0.33E-03    0.17E-06
   1      9    11.864    14.624    0.60E-04    0.28E-03    0.15E-06
 Optimization of the real space projectors (new method)

 maximal supplied QI-value         = 16.25
 optimisation between [QCUT,QGAM] = [ 11.86, 23.89] = [ 39.41,159.82] Ry 
 Optimized for a Real-space Cutoff    1.36 Angstroem

   l    n(q)    QCUT    max X(q) W(low)/X(q) W(high)/X(q)  e(spline) 
   2      9    11.864   110.144    0.49E-03    0.50E-03    0.21E-06
   2      9    11.864   103.200    0.49E-03    0.51E-03    0.22E-06
   0     10    11.864    68.437    0.12E-03    0.41E-04    0.21E-06
   0     10    11.864    33.971    0.11E-03    0.36E-04    0.19E-06
   1      9    11.864    17.065    0.24E-03    0.26E-03    0.93E-07
   1      9    11.864    12.540    0.19E-03    0.20E-03    0.80E-07
 Optimization of the real space projectors (new method)

 maximal supplied QI-value         = 12.09
 optimisation between [QCUT,QGAM] = [ 11.97, 23.95] = [ 40.14,160.58] Ry 
 Optimized for a Real-space Cutoff    1.63 Angstroem

   l    n(q)    QCUT    max X(q) W(low)/X(q) W(high)/X(q)  e(spline) 
   0     12    11.973   106.980    0.33E-03    0.16E-03    0.25E-05
   0     12    11.973    81.086    0.37E-03    0.18E-03    0.28E-05
   1     11    11.973    53.097    0.22E-03    0.42E-03    0.40E-05
   1     11    11.973    32.621    0.20E-03    0.40E-03    0.37E-05
   2     11    11.973     8.820    0.30E-03    0.17E-03    0.41E-06
  PAW_PBE Ni 02Aug2007                  :
 energy of atom  1       EATOM=-1077.6739
 kinetic energy error for atom=    0.0027 (will be added to EATOM!!)
  PAW_PBE Mn 06Sep2000                  :
 energy of atom  2       EATOM= -416.7541
 kinetic energy error for atom=    0.0022 (will be added to EATOM!!)
  PAW_PBE In 08Apr2002                  :
 energy of atom  3       EATOM=  -53.7908
 kinetic energy error for atom=    0.0000 (will be added to EATOM!!)


 POSCAR: Ni2MnIn                                 
  positions in direct lattice
  velocities in cartesian coordinates
 exchange correlation table for  LEXCH =        8
   RHO(1)=    0.500       N(1)  =     2000
   RHO(2)=  100.500       N(2)  =     4000



--------------------------------------------------------------------------------------------------------


 ion  position               nearest neighbor table
   1  0.250  0.263  0.263-  13 2.49  14 2.49   9 2.58  12 2.58  11 2.58  10 2.58  16 2.67  15 2.67
                             3 2.82   5 2.82   2 2.98   2 2.98
   2  0.750  0.263  0.263-  13 2.49  14 2.49   9 2.58  12 2.58  11 2.58  10 2.58  16 2.67  15 2.67
                             4 2.82   6 2.82   1 2.98   1 2.98
   3  0.250  0.737  0.263-  13 2.49  14 2.49   9 2.58  12 2.58  11 2.58  10 2.58  16 2.67  15 2.67
                             1 2.82   7 2.82   4 2.98   4 2.98
   4  0.750  0.737  0.263-  13 2.49  14 2.49   9 2.58  12 2.58  11 2.58  10 2.58  16 2.67  15 2.67
                             2 2.82   8 2.82   3 2.98   3 2.98
   5  0.250  0.263  0.737-  13 2.49  14 2.49   9 2.58  12 2.58  11 2.58  10 2.58  16 2.67  15 2.67
                             1 2.82   7 2.82   6 2.98   6 2.98
   6  0.750  0.263  0.737-  13 2.49  14 2.49   9 2.58  12 2.58  11 2.58  10 2.58  16 2.67  15 2.67
                             2 2.82   8 2.82   5 2.98   5 2.98
   7  0.250  0.737  0.737-  13 2.49  14 2.49   9 2.58  12 2.58  11 2.58  10 2.58  16 2.67  15 2.67
                             3 2.82   5 2.82   8 2.98   8 2.98
   8  0.750  0.737  0.737-  13 2.49  14 2.49   9 2.58  12 2.58  11 2.58  10 2.58  16 2.67  15 2.67
                             4 2.82   6 2.82   7 2.98   7 2.98
   9  0.500  0.500  0.000-   1 2.58   2 2.58   3 2.58   4 2.58   5 2.58   6 2.58   7 2.58   8 2.58
                            10 2.98  13 2.98  16 2.98  13 2.98  16 2.98  10 2.98
  10  0.000  0.500  0.000-   1 2.58   2 2.58   3 2.58   4 2.58   5 2.58   6 2.58   7 2.58   8 2.58
                             9 2.98  14 2.98  15 2.98  14 2.98  15 2.98   9 2.98
  11  0.000  0.000  0.500-   1 2.58   2 2.58   3 2.58   4 2.58   5 2.58   6 2.58   7 2.58   8 2.58
                            12 2.98  14 2.98  15 2.98  15 2.98  14 2.98  12 2.98
  12  0.500  0.000  0.500-   1 2.58   2 2.58   3 2.58   4 2.58   5 2.58   6 2.58   7 2.58   8 2.58
                            11 2.98  13 2.98  16 2.98  16 2.98  13 2.98  11 2.98
  13  0.500  0.500  0.500-   1 2.49   2 2.49   3 2.49   4 2.49   5 2.49   6 2.49   7 2.49   8 2.49
                             9 2.98  12 2.98  14 2.98   9 2.98  12 2.98  14 2.98
  14  0.000  0.500  0.500-   1 2.49   2 2.49   3 2.49   4 2.49   5 2.49   6 2.49   7 2.49   8 2.49
                            10 2.98  11 2.98  13 2.98  10 2.98  11 2.98  13 2.98
  15  0.000  0.000  0.000-   1 2.67   2 2.67   3 2.67   4 2.67   5 2.67   6 2.67   7 2.67   8 2.67
                            10 2.98  11 2.98  16 2.98  11 2.98  10 2.98  16 2.98
  16  0.500  0.000  0.000-   1 2.67   2 2.67   3 2.67   4 2.67   5 2.67   6 2.67   7 2.67   8 2.67
                             9 2.98  12 2.98  15 2.98  12 2.98   9 2.98  15 2.98

  LATTYP: Found a simple cubic cell.
 ALAT       =     5.9543750460
  
  Lattice vectors:
  
 A1 = (   5.9543750460,   0.0000000000,   0.0000000000)
 A2 = (   0.0000000000,   5.9543750460,   0.0000000000)
 A3 = (   0.0000000000,   0.0000000000,   5.9543750460)


Analysis of symmetry for initial positions (statically):
=====================================================================
 Subroutine PRICEL returns:
 Original cell was already a primitive cell.
 

 Routine SETGRP: Setting up the symmetry group for a 
 simple cubic supercell.


 Subroutine GETGRP returns: Found 16 space group operations
 (whereof 16 operations were pure point group operations)
 out of a pool of 48 trial point group operations.


The static configuration has the point symmetry D_4h.


Analysis of symmetry for dynamics (positions and initial velocities):
=====================================================================
 Subroutine PRICEL returns:
 Original cell was already a primitive cell.
 

 Routine SETGRP: Setting up the symmetry group for a 
 simple cubic supercell.


 Subroutine GETGRP returns: Found 16 space group operations
 (whereof 16 operations were pure point group operations)
 out of a pool of 48 trial point group operations.


The dynamic configuration has the point symmetry D_4h.


Analysis of structural, dynamic, and magnetic symmetry:
=====================================================================
 Subroutine PRICEL returns:
 Original cell was already a primitive cell.
 

 Routine SETGRP: Setting up the symmetry group for a 
 simple cubic supercell.


 Subroutine GETGRP returns: Found 16 space group operations
 (whereof 16 operations were pure point group operations)
 out of a pool of 48 trial point group operations.


The magnetic configuration has the point symmetry D_4h.


 Subroutine INISYM returns: Found 16 space group operations
 (whereof 16 operations are pure point group operations),
 and found     1 'primitive' translations



 KPOINTS: k-points                                

Automatic generation of k-mesh.
Space group operators:
 irot       det(A)        alpha          n_x          n_y          n_z        tau_x        tau_y        tau_z
    1     1.000000     0.000000     1.000000     0.000000     0.000000     0.000000     0.000000     0.000000
    2    -1.000000     0.000000     1.000000     0.000000     0.000000     0.000000     0.000000     0.000000
    3     1.000000   180.000000     0.000000     0.707107     0.707107     0.000000     0.000000     0.000000
    4    -1.000000   180.000000     0.000000     0.707107     0.707107     0.000000     0.000000     0.000000
    5     1.000000   180.000000     0.000000     0.000000     1.000000     0.000000     0.000000     0.000000
    6    -1.000000   180.000000     0.000000     0.000000     1.000000     0.000000     0.000000     0.000000
    7     1.000000    90.000000    -1.000000     0.000000     0.000000     0.000000     0.000000     0.000000
    8    -1.000000    90.000000    -1.000000     0.000000     0.000000     0.000000     0.000000     0.000000
    9     1.000000   180.000000     1.000000     0.000000     0.000000     0.000000     0.000000     0.000000
   10    -1.000000   180.000000     1.000000     0.000000     0.000000     0.000000     0.000000     0.000000
   11     1.000000    90.000000     1.000000     0.000000     0.000000     0.000000     0.000000     0.000000
   12    -1.000000    90.000000     1.000000     0.000000     0.000000     0.000000     0.000000     0.000000
   13     1.000000   180.000000     0.000000     1.000000     0.000000     0.000000     0.000000     0.000000
   14    -1.000000   180.000000     0.000000     1.000000     0.000000     0.000000     0.000000     0.000000
   15     1.000000   180.000000     0.000000    -0.707107     0.707107     0.000000     0.000000     0.000000
   16    -1.000000   180.000000     0.000000    -0.707107     0.707107     0.000000     0.000000     0.000000
 
 Subroutine IBZKPT returns following result:
 ===========================================
 
 Found     40 irreducible k-points:
 
 Following reciprocal coordinates:
            Coordinates               Weight
  0.000000  0.000000  0.000000      1.000000
  0.142857  0.000000  0.000000      2.000000
  0.285714  0.000000  0.000000      2.000000
  0.428571  0.000000  0.000000      2.000000
  0.000000  0.142857  0.000000      4.000000
  0.142857  0.142857  0.000000      8.000000
  0.285714  0.142857  0.000000      8.000000
  0.428571  0.142857  0.000000      8.000000
  0.000000  0.285714  0.000000      4.000000
  0.142857  0.285714  0.000000      8.000000
  0.285714  0.285714  0.000000      8.000000
  0.428571  0.285714  0.000000      8.000000
  0.000000  0.428571  0.000000      4.000000
  0.142857  0.428571  0.000000      8.000000
  0.285714  0.428571  0.000000      8.000000
  0.428571  0.428571  0.000000      8.000000
  0.000000  0.142857  0.142857      4.000000
  0.142857  0.142857  0.142857      8.000000
  0.285714  0.142857  0.142857      8.000000
  0.428571  0.142857  0.142857      8.000000
  0.000000  0.285714  0.142857      8.000000
  0.142857  0.285714  0.142857     16.000000
  0.285714  0.285714  0.142857     16.000000
  0.428571  0.285714  0.142857     16.000000
  0.000000  0.428571  0.142857      8.000000
  0.142857  0.428571  0.142857     16.000000
  0.285714  0.428571  0.142857     16.000000
  0.428571  0.428571  0.142857     16.000000
  0.000000  0.285714  0.285714      4.000000
  0.142857  0.285714  0.285714      8.000000
  0.285714  0.285714  0.285714      8.000000
  0.428571  0.285714  0.285714      8.000000
  0.000000  0.428571  0.285714      8.000000
  0.142857  0.428571  0.285714     16.000000
  0.285714  0.428571  0.285714     16.000000
  0.428571  0.428571  0.285714     16.000000
  0.000000  0.428571  0.428571      4.000000
  0.142857  0.428571  0.428571      8.000000
  0.285714  0.428571  0.428571      8.000000
  0.428571  0.428571  0.428571      8.000000
 
 Following cartesian coordinates:
            Coordinates               Weight
  0.000000  0.000000  0.000000      1.000000
  0.138194  0.000000  0.000000      2.000000
  0.276387  0.000000  0.000000      2.000000
  0.414581  0.000000  0.000000      2.000000
  0.000000  0.138194  0.000000      4.000000
  0.138194  0.138194  0.000000      8.000000
  0.276387  0.138194  0.000000      8.000000
  0.414581  0.138194  0.000000      8.000000
  0.000000  0.276387  0.000000      4.000000
  0.138194  0.276387  0.000000      8.000000
  0.276387  0.276387  0.000000      8.000000
  0.414581  0.276387  0.000000      8.000000
  0.000000  0.414581  0.000000      4.000000
  0.138194  0.414581  0.000000      8.000000
  0.276387  0.414581  0.000000      8.000000
  0.414581  0.414581  0.000000      8.000000
  0.000000  0.138194  0.138194      4.000000
  0.138194  0.138194  0.138194      8.000000
  0.276387  0.138194  0.138194      8.000000
  0.414581  0.138194  0.138194      8.000000
  0.000000  0.276387  0.138194      8.000000
  0.138194  0.276387  0.138194     16.000000
  0.276387  0.276387  0.138194     16.000000
  0.414581  0.276387  0.138194     16.000000
  0.000000  0.414581  0.138194      8.000000
  0.138194  0.414581  0.138194     16.000000
  0.276387  0.414581  0.138194     16.000000
  0.414581  0.414581  0.138194     16.000000
  0.000000  0.276387  0.276387      4.000000
  0.138194  0.276387  0.276387      8.000000
  0.276387  0.276387  0.276387      8.000000
  0.414581  0.276387  0.276387      8.000000
  0.000000  0.414581  0.276387      8.000000
  0.138194  0.414581  0.276387     16.000000
  0.276387  0.414581  0.276387     16.000000
  0.414581  0.414581  0.276387     16.000000
  0.000000  0.414581  0.414581      4.000000
  0.138194  0.414581  0.414581      8.000000
  0.276387  0.414581  0.414581      8.000000
  0.414581  0.414581  0.414581      8.000000
 


--------------------------------------------------------------------------------------------------------




 Dimension of arrays:
   k-points           NKPTS =     40   k-points in BZ     NKDIM =     40   number of bands    NBANDS=     84
   number of dos      NEDOS =    301   number of ions     NIONS =     16
   non local maximal  LDIM  =      6   non local SUM 2l+1 LMDIM =     18
   total plane-waves  NPLWV =  46656
   max r-space proj   IRMAX =   4056   max aug-charges    IRDMAX=  25128
   dimension x,y,z NGX =    36 NGY =   36 NGZ =   36
   dimension x,y,z NGXF=    72 NGYF=   72 NGZF=   72
   support grid    NGXF=    72 NGYF=   72 NGZF=   72
   ions per type =               8   6   2
   NGX,Y,Z   is equivalent  to a cutoff of  10.05, 10.05, 10.05 a.u.
   NGXF,Y,Z  is equivalent  to a cutoff of  20.10, 20.10, 20.10 a.u.

 SYSTEM =  Testrun for NiMnIn                      
 POSCAR =  Ni2MnIn                                 

 Startparameter for this run:
   NWRITE =      2    write-flag & timer
   PREC   = normal    normal or accurate (medium, high low for compatibility)
   ISTART =      0    job   : 0-new  1-cont  2-samecut
   ICHARG =      2    charge: 1-file 2-atom 10-const
   ISPIN  =      2    spin polarized calculation?
   LNONCOLLINEAR =      F non collinear calculations
   LSORBIT =      F    spin-orbit coupling
   INIWAV =      1    electr: 0-lowe 1-rand  2-diag
   LASPH  =      F    aspherical Exc in radial PAW
   METAGGA=      F    non-selfconsistent MetaGGA calc.

 Electronic Relaxation 1
   ENCUT  =  550.0 eV  40.42 Ry    6.36 a.u.  11.39 11.39 11.39*2*pi/ulx,y,z
   ENINI  =  550.0     initial cutoff
   ENAUG  =  544.6 eV  augmentation charge cutoff
   NELM   =     60;   NELMIN=  2; NELMDL= -5     # of ELM steps 
   EDIFF  = 0.1E-04   stopping-criterion for ELM
   LREAL  =      T    real-space projection
   NLSPLINE    = F    spline interpolate recip. space projectors
   LCOMPAT=      F    compatible to vasp.4.4
   GGA_COMPAT  = T    GGA compatible to vasp.4.4-vasp.4.6
   LMAXPAW     = -100 max onsite density
   LMAXMIX     =    2 max onsite mixed and CHGCAR
   VOSKOWN=      0    Vosko Wilk Nusair interpolation
   ROPT   =   -0.00050  -0.00050  -0.00050
 Ionic relaxation
   EDIFFG = -.1E-01   stopping-criterion for IOM
   NSW    =   1000    number of steps for IOM
   NBLOCK =      1;   KBLOCK =   1000    inner block; outer block 
   IBRION =      2    ionic relax: 0-MD 1-quasi-New 2-CG
   NFREE  =      1    steps in history (QN), initial steepest desc. (CG)
   ISIF   =      2    stress and relaxation
   IWAVPR =     11    prediction:  0-non 1-charg 2-wave 3-comb
   ISYM   =      2    0-nonsym 1-usesym 2-fastsym
   LCORR  =      T    Harris-Foulkes like correction to forces

   POTIM  = 0.5000    time-step for ionic-motion
   TEIN   =    0.0    initial temperature
   TEBEG  =    0.0;   TEEND  =   0.0 temperature during run
   SMASS  =  -3.00    Nose mass-parameter (am)
   estimated Nose-frequenzy (Omega)   =  0.10E-29 period in steps =****** mass=  -0.810E-27a.u.
   SCALEE = 1.0000    scale energy and forces
   NPACO  =    256;   APACO  = 16.0  distance and # of slots for P.C.
   PSTRESS=    0.0 pullay stress

  Mass of Ions in am
   POMASS =  58.69 54.94114.82
  Ionic Valenz
   ZVAL   =  10.00  7.00  3.00
  Atomic Wigner-Seitz radii
   RWIGS  =  -1.00 -1.00 -1.00
  virtual crystal weights 
   VCA    =   1.00  1.00  1.00
   NELECT =     128.0000    total number of electrons
   NUPDOWN=      -1.0000    fix difference up-down

 DOS related values:
   EMIN   =  10.00;   EMAX   =-10.00  energy-range for DOS
   EFERMI =   0.00
   ISMEAR =     0;   SIGMA  =   0.02  broadening in eV -4-tet -1-fermi 0-gaus

 Electronic relaxation 2 (details)
   IALGO  =     68    algorithm
   LDIAG  =      T    sub-space diagonalisation (order eigenvalues)
   LSUBROT=      F    optimize rotation matrix (better conditioning)
   TURBO    =      0    0=normal 1=particle mesh
   IRESTART =      0    0=no restart 2=restart with 2 vectors
   NREBOOT  =      0    no. of reboots
   NMIN     =      0    reboot dimension
   EREF     =   0.00    reference energy to select bands
   IMIX   =      4    mixing-type and parameters
     AMIX     =   0.40;   BMIX     =  1.00
     AMIX_MAG =   1.60;   BMIX_MAG =  1.00
     AMIN     =   0.10
     WC   =   100.;   INIMIX=   1;  MIXPRE=   1;  MAXMIX= -45

 Intra band minimization:
   WEIMIN = 0.0010     energy-eigenvalue tresh-hold
   EBREAK =  0.30E-07  absolut break condition
   DEPER  =   0.30     relativ break condition  

   TIME   =   0.40     timestep for ELM

  volume/ion in A,a.u.               =      13.19        89.04
  Fermi-wavevector in a.u.,A,eV,Ry     =   1.385613  2.618429 26.122146  1.919924
  Thomas-Fermi vector in A             =   2.510007

 Write flags
   LWAVE        =      F    write WAVECAR
   LDOWNSAMPLE  =      F    k-point downsampling of WAVECAR
   LCHARG       =      T    write CHGCAR
   LVTOT        =      F    write LOCPOT, total local potential
   LVHAR        =      F    write LOCPOT, Hartree potential only
   LELF         =      F    write electronic localiz. function (ELF)
   LORBIT       =     11    0 simple, 1 ext, 2 COOP (PROOUT), +10 PAW based schemes


 Dipole corrections
   LMONO  =      F    monopole corrections only (constant potential shift)
   LDIPOL =      F    correct potential (dipole corrections)
   IDIPOL =      0    1-x, 2-y, 3-z, 4-all directions 
   EPSILON=  1.0000000 bulk dielectric constant

 Exchange correlation treatment:
   GGA     =    --    GGA type
   LEXCH   =     8    internal setting for exchange type
   VOSKOWN=      0    Vosko Wilk Nusair interpolation
   LHFCALC =     F    Hartree Fock is set to
   LHFONE  =     F    Hartree Fock one center treatment
   AEXX    =    0.0000 exact exchange contribution

 Linear response parameters
   LEPSILON=     F    determine dielectric tensor
   LRPA    =     F    only Hartree local field effects (RPA)
   LNABLA  =     F    use nabla operator in PAW spheres
   LVEL    =     F    velocity operator in full k-point grid
   LINTERFAST=   F  fast interpolation
   KINTER  =     0    interpolate to denser k-point grid
   CSHIFT  =0.1000    complex shift for real part using Kramers Kronig
   OMEGAMAX=  -1.0    maximum frequency
   DEG_THRESHOLD= 0.2000000E-02 threshold for treating states as degnerate
   RTIME   =   -0.100 relaxation time in fs
  (WPLASMAI=    0.000 imaginary part of plasma frequency in eV, 0.658/RTIME)
   DFIELD  = 0.0000000 0.0000000 0.0000000 field for delta impulse in time

 Orbital magnetization related:
   ORBITALMAG=     F  switch on orbital magnetization
   LCHIMAG   =     F  perturbation theory with respect to B field
   DQ        =  0.001000  dq finite difference perturbation B field
   LLRAUG    =     F  two centre corrections for induced B field



--------------------------------------------------------------------------------------------------------


 conjugate gradient relaxation of ions
 charge density and potential will be updated during run
 spin polarized calculation
 RMM-DIIS sequential band-by-band and
  variant of blocked Davidson during initial phase
 perform sub-space diagonalisation
    before iterative eigenvector-optimisation
 modified Broyden-mixing scheme, WC =      100.0
 initial mixing is a Kerker type mixing with AMIX =  0.4000 and BMIX =      1.0000
 Hartree-type preconditioning will be used
 using additional bands           20
 real space projection scheme for non local part
 use partial core corrections
 calculate Harris-corrections to forces   (improved forces if not selfconsistent)
 use gradient corrections 
 use of overlap-Matrix (Vanderbilt PP)
 Gauss-broadening in eV      SIGMA  =   0.02


--------------------------------------------------------------------------------------------------------


  energy-cutoff  :      550.00
  volume of cell :      211.11
      direct lattice vectors                 reciprocal lattice vectors
     5.954375046  0.000000000  0.000000000     0.167943738  0.000000000  0.000000000
     0.000000000  5.954375046  0.000000000     0.000000000  0.167943738  0.000000000
     0.000000000  0.000000000  5.954375046     0.000000000  0.000000000  0.167943738

  length of vectors
     5.954375046  5.954375046  5.954375046     0.167943738  0.167943738  0.167943738



 k-points in units of 2pi/SCALE and weight: k-points                                
   0.00000000  0.00000000  0.00000000       0.003
   0.13819370  0.00000000  0.00000000       0.006
   0.27638741  0.00000000  0.00000000       0.006
   0.41458111  0.00000000  0.00000000       0.006
   0.00000000  0.13819370  0.00000000       0.012
   0.13819370  0.13819370  0.00000000       0.023
   0.27638741  0.13819370  0.00000000       0.023
   0.41458111  0.13819370  0.00000000       0.023
   0.00000000  0.27638741  0.00000000       0.012
   0.13819370  0.27638741  0.00000000       0.023
   0.27638741  0.27638741  0.00000000       0.023
   0.41458111  0.27638741  0.00000000       0.023
   0.00000000  0.41458111  0.00000000       0.012
   0.13819370  0.41458111  0.00000000       0.023
   0.27638741  0.41458111  0.00000000       0.023
   0.41458111  0.41458111  0.00000000       0.023
   0.00000000  0.13819370  0.13819370       0.012
   0.13819370  0.13819370  0.13819370       0.023
   0.27638741  0.13819370  0.13819370       0.023
   0.41458111  0.13819370  0.13819370       0.023
   0.00000000  0.27638741  0.13819370       0.023
   0.13819370  0.27638741  0.13819370       0.047
   0.27638741  0.27638741  0.13819370       0.047
   0.41458111  0.27638741  0.13819370       0.047
   0.00000000  0.41458111  0.13819370       0.023
   0.13819370  0.41458111  0.13819370       0.047
   0.27638741  0.41458111  0.13819370       0.047
   0.41458111  0.41458111  0.13819370       0.047
   0.00000000  0.27638741  0.27638741       0.012
   0.13819370  0.27638741  0.27638741       0.023
   0.27638741  0.27638741  0.27638741       0.023
   0.41458111  0.27638741  0.27638741       0.023
   0.00000000  0.41458111  0.27638741       0.023
   0.13819370  0.41458111  0.27638741       0.047
   0.27638741  0.41458111  0.27638741       0.047
   0.41458111  0.41458111  0.27638741       0.047
   0.00000000  0.41458111  0.41458111       0.012
   0.13819370  0.41458111  0.41458111       0.023
   0.27638741  0.41458111  0.41458111       0.023
   0.41458111  0.41458111  0.41458111       0.023

 k-points in reciprocal lattice and weights: k-points                                
   0.00000000  0.00000000  0.00000000       0.003
   0.14285714  0.00000000  0.00000000       0.006
   0.28571429  0.00000000  0.00000000       0.006
   0.42857143  0.00000000  0.00000000       0.006
   0.00000000  0.14285714  0.00000000       0.012
   0.14285714  0.14285714  0.00000000       0.023
   0.28571429  0.14285714  0.00000000       0.023
   0.42857143  0.14285714  0.00000000       0.023
   0.00000000  0.28571429  0.00000000       0.012
   0.14285714  0.28571429  0.00000000       0.023
   0.28571429  0.28571429  0.00000000       0.023
   0.42857143  0.28571429  0.00000000       0.023
   0.00000000  0.42857143  0.00000000       0.012
   0.14285714  0.42857143  0.00000000       0.023
   0.28571429  0.42857143  0.00000000       0.023
   0.42857143  0.42857143  0.00000000       0.023
   0.00000000  0.14285714  0.14285714       0.012
   0.14285714  0.14285714  0.14285714       0.023
   0.28571429  0.14285714  0.14285714       0.023
   0.42857143  0.14285714  0.14285714       0.023
   0.00000000  0.28571429  0.14285714       0.023
   0.14285714  0.28571429  0.14285714       0.047
   0.28571429  0.28571429  0.14285714       0.047
   0.42857143  0.28571429  0.14285714       0.047
   0.00000000  0.42857143  0.14285714       0.023
   0.14285714  0.42857143  0.14285714       0.047
   0.28571429  0.42857143  0.14285714       0.047
   0.42857143  0.42857143  0.14285714       0.047
   0.00000000  0.28571429  0.28571429       0.012
   0.14285714  0.28571429  0.28571429       0.023
   0.28571429  0.28571429  0.28571429       0.023
   0.42857143  0.28571429  0.28571429       0.023
   0.00000000  0.42857143  0.28571429       0.023
   0.14285714  0.42857143  0.28571429       0.047
   0.28571429  0.42857143  0.28571429       0.047
   0.42857143  0.42857143  0.28571429       0.047
   0.00000000  0.42857143  0.42857143       0.012
   0.14285714  0.42857143  0.42857143       0.023
   0.28571429  0.42857143  0.42857143       0.023
   0.42857143  0.42857143  0.42857143       0.023

 position of ions in fractional coordinates (direct lattice) 
   0.25001141  0.26319605  0.26319605
   0.74998859  0.26319605  0.26319605
   0.25001141  0.73680395  0.26319605
   0.74998859  0.73680395  0.26319605
   0.25001141  0.26319605  0.73680395
   0.74998859  0.26319605  0.73680395
   0.25001141  0.73680395  0.73680395
   0.74998859  0.73680395  0.73680395
   0.50000000  0.50000000  0.00000000
   0.00000000  0.50000000  0.00000000
   0.00000000  0.00000000  0.50000000
   0.50000000  0.00000000  0.50000000
   0.50000000  0.50000000  0.50000000
   0.00000000  0.50000000  0.50000000
   0.00000000  0.00000000  0.00000000
   0.50000000  0.00000000  0.00000000

 position of ions in cartesian coordinates  (Angst):
   1.48866171  1.56716797  1.56716797
   4.46571334  1.56716797  1.56716797
   1.48866171  4.38720708  1.56716797
   4.46571334  4.38720708  1.56716797
   1.48866171  1.56716797  4.38720708
   4.46571334  1.56716797  4.38720708
   1.48866171  4.38720708  4.38720708
   4.46571334  4.38720708  4.38720708
   2.97718752  2.97718752  0.00000000
   0.00000000  2.97718752  0.00000000
   0.00000000  0.00000000  2.97718752
   2.97718752  0.00000000  2.97718752
   2.97718752  2.97718752  2.97718752
   0.00000000  2.97718752  2.97718752
   0.00000000  0.00000000  0.00000000
   2.97718752  0.00000000  0.00000000



--------------------------------------------------------------------------------------------------------


 k-point  1 :   0.0000 0.0000 0.0000  plane waves:    6187
 k-point  2 :   0.1429 0.0000 0.0000  plane waves:    6187
 k-point  3 :   0.2857 0.0000 0.0000  plane waves:    6167
 k-point  4 :   0.4286 0.0000 0.0000  plane waves:    6190
 k-point  5 :   0.0000 0.1429 0.0000  plane waves:    6187
 k-point  6 :   0.1429 0.1429 0.0000  plane waves:    6194
 k-point  7 :   0.2857 0.1429 0.0000  plane waves:    6184
 k-point  8 :   0.4286 0.1429 0.0000  plane waves:    6199
 k-point  9 :   0.0000 0.2857 0.0000  plane waves:    6167
 k-point 10 :   0.1429 0.2857 0.0000  plane waves:    6184
 k-point 11 :   0.2857 0.2857 0.0000  plane waves:    6194
 k-point 12 :   0.4286 0.2857 0.0000  plane waves:    6179
 k-point 13 :   0.0000 0.4286 0.0000  plane waves:    6190
 k-point 14 :   0.1429 0.4286 0.0000  plane waves:    6199
 k-point 15 :   0.2857 0.4286 0.0000  plane waves:    6179
 k-point 16 :   0.4286 0.4286 0.0000  plane waves:    6174
 k-point 17 :   0.0000 0.1429 0.1429  plane waves:    6194
 k-point 18 :   0.1429 0.1429 0.1429  plane waves:    6193
 k-point 19 :   0.2857 0.1429 0.1429  plane waves:    6186
 k-point 20 :   0.4286 0.1429 0.1429  plane waves:    6176
 k-point 21 :   0.0000 0.2857 0.1429  plane waves:    6184
 k-point 22 :   0.1429 0.2857 0.1429  plane waves:    6186
 k-point 23 :   0.2857 0.2857 0.1429  plane waves:    6179
 k-point 24 :   0.4286 0.2857 0.1429  plane waves:    6181
 k-point 25 :   0.0000 0.4286 0.1429  plane waves:    6199
 k-point 26 :   0.1429 0.4286 0.1429  plane waves:    6176
 k-point 27 :   0.2857 0.4286 0.1429  plane waves:    6181
 k-point 28 :   0.4286 0.4286 0.1429  plane waves:    6175
 k-point 29 :   0.0000 0.2857 0.2857  plane waves:    6194
 k-point 30 :   0.1429 0.2857 0.2857  plane waves:    6179
 k-point 31 :   0.2857 0.2857 0.2857  plane waves:    6181
 k-point 32 :   0.4286 0.2857 0.2857  plane waves:    6196
 k-point 33 :   0.0000 0.4286 0.2857  plane waves:    6179
 k-point 34 :   0.1429 0.4286 0.2857  plane waves:    6181
 k-point 35 :   0.2857 0.4286 0.2857  plane waves:    6196
 k-point 36 :   0.4286 0.4286 0.2857  plane waves:    6164
 k-point 37 :   0.0000 0.4286 0.4286  plane waves:    6174
 k-point 38 :   0.1429 0.4286 0.4286  plane waves:    6175
 k-point 39 :   0.2857 0.4286 0.4286  plane waves:    6164
 k-point 40 :   0.4286 0.4286 0.4286  plane waves:    6137

 maximum and minimum number of plane-waves per node :      6199     6137

 maximum number of plane-waves:      6199
 maximum index in each direction: 
   IXMAX=   11   IYMAX=   11   IZMAX=   11
   IXMIN=  -11   IYMIN=  -11   IZMIN=  -11


 serial   3D FFT for wavefunctions
 parallel 3D FFT for charge:
    minimum data exchange during FFTs selected (reduces bandwidth)


 total amount of memory used by VASP MPI-rank0   103323. kBytes
=======================================================================

   base      :      30000. kBytes
   nonlr-proj:       6816. kBytes
   fftplans  :       1269. kBytes
   grid      :       6573. kBytes
   one-center:        497. kBytes
   wavefun   :      58168. kBytes

     INWAV:  cpu time    0.0000: real time    0.0000
 Broyden mixing: mesh for mixing (old mesh)
   NGX = 23   NGY = 23   NGZ = 23
  (NGX  = 72   NGY  = 72   NGZ  = 72)
  gives a total of  12167 points

 initial charge density was supplied:
 charge density of overlapping atoms calculated
 number of electron     128.0000000 magnetization       0.8000000
 keeping initial charge density in first step


--------------------------------------------------------------------------------------------------------


 Maximum index for non-local projection operator         3887
 Maximum index for augmentation-charges         2111 (set IRDMAX)


--------------------------------------------------------------------------------------------------------


 First call to EWALD:  gamma=   0.298
 Maximum number of real-space cells 3x 3x 3
 Maximum number of reciprocal cells 3x 3x 3

    FEWALD:  cpu time    0.0021: real time    0.0021


--------------------------------------- Iteration      1(   1)  ---------------------------------------


    POTLOK:  cpu time    0.1059: real time    0.1216
    SETDIJ:  cpu time    0.0378: real time    0.0378
     EDDAV:  cpu time   23.9364: real time   23.9666
       DOS:  cpu time    0.0035: real time    0.0036
    --------------------------------------------
      LOOP:  cpu time   24.0836: real time   24.1296

 eigenvalue-minimisations  : 13440
 total energy-change (2. order) : 0.1069239E+04  (-0.5424749E+04)
 number of electron     128.0000000 magnetization       0.8000000
 augmentation part      128.0000000 magnetization       0.8000000

 Free energy of the ion-electron system (eV)
  ---------------------------------------------------
  alpha Z        PSCENC =       533.01422461
  Ewald energy   TEWEN  =     -9248.00897242
  -Hartree energ DENC   =     -3184.64764825
  -exchange      EXHF   =         0.00000000
  -V(xc)+E(xc)   XCENC  =        78.08606755
  PAW double counting   =     10320.96726947   -10647.99417394
  entropy T*S    EENTRO =        -0.00111642
  eigenvalues    EBANDS =      1988.36157931
  atomic energy  EATOM  =     11229.46195210
  Solvation  Ediel_sol  =         0.00000000
  ---------------------------------------------------
  free energy    TOTEN  =      1069.23918201 eV

  energy without entropy =     1069.24029842  energy(sigma->0) =     1069.23974021


--------------------------------------------------------------------------------------------------------




--------------------------------------- Iteration      1(   2)  ---------------------------------------


     EDDAV:  cpu time   23.8566: real time   23.8815
       DOS:  cpu time    0.0037: real time    0.0037
    --------------------------------------------
      LOOP:  cpu time   23.8603: real time   23.8851

 eigenvalue-minimisations  : 13440
 total energy-change (2. order) :-0.1068199E+04  (-0.1035269E+04)
 number of electron     128.0000000 magnetization       0.8000000
 augmentation part      128.0000000 magnetization       0.8000000

 Free energy of the ion-electron system (eV)
  ---------------------------------------------------
  alpha Z        PSCENC =       533.01422461
  Ewald energy   TEWEN  =     -9248.00897242
  -Hartree energ DENC   =     -3184.64764825
  -exchange      EXHF   =         0.00000000
  -V(xc)+E(xc)   XCENC  =        78.08606755
  PAW double counting   =     10320.96726947   -10647.99417394
  entropy T*S    EENTRO =        -0.00311968
  eigenvalues    EBANDS =       920.16475784
  atomic energy  EATOM  =     11229.46195210
  Solvation  Ediel_sol  =         0.00000000
  ---------------------------------------------------
  free energy    TOTEN  =         1.04035727 eV

  energy without entropy =        1.04347695  energy(sigma->0) =        1.04191711


--------------------------------------------------------------------------------------------------------




--------------------------------------- Iteration      1(   3)  ---------------------------------------


     EDDAV:  cpu time   26.0591: real time   26.0850
       DOS:  cpu time    0.0037: real time    0.0037
    --------------------------------------------
      LOOP:  cpu time   26.0628: real time   26.0887

 eigenvalue-minimisations  : 14988
 total energy-change (2. order) :-0.1112920E+03  (-0.1004628E+03)
 number of electron     128.0000000 magnetization       0.8000000
 augmentation part      128.0000000 magnetization       0.8000000

 Free energy of the ion-electron system (eV)
  ---------------------------------------------------
  alpha Z        PSCENC =       533.01422461
  Ewald energy   TEWEN  =     -9248.00897242
  -Hartree energ DENC   =     -3184.64764825
  -exchange      EXHF   =         0.00000000
  -V(xc)+E(xc)   XCENC  =        78.08606755
  PAW double counting   =     10320.96726947   -10647.99417394
  entropy T*S    EENTRO =        -0.00279006
  eigenvalues    EBANDS =       808.87238554
  atomic energy  EATOM  =     11229.46195210
  Solvation  Ediel_sol  =         0.00000000
  ---------------------------------------------------
  free energy    TOTEN  =      -110.25168540 eV

  energy without entropy =     -110.24889534  energy(sigma->0) =     -110.25029037


--------------------------------------------------------------------------------------------------------




--------------------------------------- Iteration      1(   4)  ---------------------------------------


     EDDAV:  cpu time   33.4352: real time   33.4710
       DOS:  cpu time    0.0038: real time    0.0038
    --------------------------------------------
      LOOP:  cpu time   33.4390: real time   33.4749

 eigenvalue-minimisations  : 20340
 total energy-change (2. order) :-0.6977047E+01  (-0.6595288E+01)
 number of electron     128.0000000 magnetization       0.8000000
 augmentation part      128.0000000 magnetization       0.8000000

 Free energy of the ion-electron system (eV)
  ---------------------------------------------------
  alpha Z        PSCENC =       533.01422461
  Ewald energy   TEWEN  =     -9248.00897242
  -Hartree energ DENC   =     -3184.64764825
  -exchange      EXHF   =         0.00000000
  -V(xc)+E(xc)   XCENC  =        78.08606755
  PAW double counting   =     10320.96726947   -10647.99417394
  entropy T*S    EENTRO =        -0.00330830
  eigenvalues    EBANDS =       801.89585685
  atomic energy  EATOM  =     11229.46195210
  Solvation  Ediel_sol  =         0.00000000
  ---------------------------------------------------
  free energy    TOTEN  =      -117.22873233 eV

  energy without entropy =     -117.22542403  energy(sigma->0) =     -117.22707818


--------------------------------------------------------------------------------------------------------




--------------------------------------- Iteration      1(   5)  ---------------------------------------


     EDDAV:  cpu time   32.7672: real time   32.8015
       DOS:  cpu time    0.0037: real time    0.0038
    CHARGE:  cpu time    0.7004: real time    0.7009
    MIXING:  cpu time    0.0016: real time    0.0016
    --------------------------------------------
      LOOP:  cpu time   33.4730: real time   33.5078

 eigenvalue-minimisations  : 19992
 total energy-change (2. order) :-0.2436313E+00  (-0.2419847E+00)
 number of electron     127.9999556 magnetization       0.4410775
 augmentation part       60.5327108 magnetization       0.3679063

 Broyden mixing:
  rms(total) = 0.34590E+01    rms(broyden)= 0.34589E+01
  rms(prec ) = 0.53296E+01
  weight for this iteration     100.00

 Free energy of the ion-electron system (eV)
  ---------------------------------------------------
  alpha Z        PSCENC =       533.01422461
  Ewald energy   TEWEN  =     -9248.00897242
  -Hartree energ DENC   =     -3184.64764825
  -exchange      EXHF   =         0.00000000
  -V(xc)+E(xc)   XCENC  =        78.08606755
  PAW double counting   =     10320.96726947   -10647.99417394
  entropy T*S    EENTRO =        -0.00321947
  eigenvalues    EBANDS =       801.65213671
  atomic energy  EATOM  =     11229.46195210
  Solvation  Ediel_sol  =         0.00000000
  ---------------------------------------------------
  free energy    TOTEN  =      -117.47236365 eV

  energy without entropy =     -117.46914418  energy(sigma->0) =     -117.47075392


--------------------------------------------------------------------------------------------------------




--------------------------------------- Iteration      1(   6)  ---------------------------------------


    POTLOK:  cpu time    0.1042: real time    0.1057
    SETDIJ:  cpu time    0.0386: real time    0.0386
    EDDIAG:  cpu time    3.3629: real time    3.3660
  RMM-DIIS:  cpu time   10.5557: real time   10.5647
    ORTHCH:  cpu time    0.6354: real time    0.6361
       DOS:  cpu time    0.0038: real time    0.0038
    CHARGE:  cpu time    0.7034: real time    0.7039
    MIXING:  cpu time    0.0017: real time    0.0017
    --------------------------------------------
      LOOP:  cpu time   15.4058: real time   15.4205

 eigenvalue-minimisations  : 13440
 total energy-change (2. order) : 0.8086906E+01  (-0.1593015E+02)
 number of electron     127.9999614 magnetization       0.4170062
 augmentation part       69.8996821 magnetization       0.2964488

 Broyden mixing:
  rms(total) = 0.44274E+01    rms(broyden)= 0.44273E+01
  rms(prec ) = 0.59674E+01
  weight for this iteration     100.00

 eigenvalues of (default mixing * dielectric matrix)
  average eigenvalue GAMMA=   0.2361
  0.2361

 Free energy of the ion-electron system (eV)
  ---------------------------------------------------
  alpha Z        PSCENC =       533.01422461
  Ewald energy   TEWEN  =     -9248.00897242
  -Hartree energ DENC   =     -2945.57748598
  -exchange      EXHF   =         0.00000000
  -V(xc)+E(xc)   XCENC  =        65.81280709
  PAW double counting   =     11113.24515376   -11405.59581896
  entropy T*S    EENTRO =        -0.00501420
  eigenvalues    EBANDS =       548.26769598
  atomic energy  EATOM  =     11229.46195210
  Solvation  Ediel_sol  =         0.00000000
  ---------------------------------------------------
  free energy    TOTEN  =      -109.38545801 eV

  energy without entropy =     -109.38044382  energy(sigma->0) =     -109.38295091


--------------------------------------------------------------------------------------------------------




--------------------------------------- Iteration      1(   7)  ---------------------------------------


    POTLOK:  cpu time    0.0989: real time    0.0990
    SETDIJ:  cpu time    0.0361: real time    0.0361
    EDDIAG:  cpu time    3.3303: real time    3.3335
  RMM-DIIS:  cpu time   10.5643: real time   10.5735
    ORTHCH:  cpu time    0.6376: real time    0.6383
       DOS:  cpu time    0.0037: real time    0.0037
    CHARGE:  cpu time    0.7107: real time    0.7112
    MIXING:  cpu time    0.0017: real time    0.0017
    --------------------------------------------
      LOOP:  cpu time   15.3833: real time   15.3970

 eigenvalue-minimisations  : 13566
 total energy-change (2. order) :-0.1946555E+01  (-0.2207830E+01)
 number of electron     127.9999476 magnetization       0.3643261
 augmentation part       69.7562847 magnetization       0.3563621

 Broyden mixing:
  rms(total) = 0.36267E+01    rms(broyden)= 0.36266E+01
  rms(prec ) = 0.66712E+01
  weight for this iteration     100.00

 eigenvalues of (default mixing * dielectric matrix)
  average eigenvalue GAMMA=   0.4258
  0.4258  0.4258

 Free energy of the ion-electron system (eV)
  ---------------------------------------------------
  alpha Z        PSCENC =       533.01422461
  Ewald energy   TEWEN  =     -9248.00897242
  -Hartree energ DENC   =     -2946.69217223
  -exchange      EXHF   =         0.00000000
  -V(xc)+E(xc)   XCENC  =        67.58131887
  PAW double counting   =     11422.65172361   -11723.54731340
  entropy T*S    EENTRO =        -0.00193389
  eigenvalues    EBANDS =       554.20916021
  atomic energy  EATOM  =     11229.46195210
  Solvation  Ediel_sol  =         0.00000000
  ---------------------------------------------------
  free energy    TOTEN  =      -111.33201255 eV

  energy without entropy =     -111.33007865  energy(sigma->0) =     -111.33104560


--------------------------------------------------------------------------------------------------------




--------------------------------------- Iteration      1(   8)  ---------------------------------------


    POTLOK:  cpu time    0.0973: real time    0.0974
    SETDIJ:  cpu time    0.0360: real time    0.0360
    EDDIAG:  cpu time    3.3515: real time    3.3547
  RMM-DIIS:  cpu time   10.6705: real time   10.6794
    ORTHCH:  cpu time    0.6394: real time    0.6399
       DOS:  cpu time    0.0040: real time    0.0040
    CHARGE:  cpu time    0.7114: real time    0.7120
    MIXING:  cpu time    0.0018: real time    0.0018
    --------------------------------------------
      LOOP:  cpu time   15.5120: real time   15.5253

 eigenvalue-minimisations  : 13440
 total energy-change (2. order) : 0.5959916E+01  (-0.2035793E+01)
 number of electron     127.9999585 magnetization       0.6693304
 augmentation part       68.1987975 magnetization       0.2857994

 Broyden mixing:
  rms(total) = 0.22075E+01    rms(broyden)= 0.22074E+01
  rms(prec ) = 0.41778E+01
  weight for this iteration     100.00

 eigenvalues of (default mixing * dielectric matrix)
  average eigenvalue GAMMA=   0.4831
  0.7936  0.4873  0.1685

 Free energy of the ion-electron system (eV)
  ---------------------------------------------------
  alpha Z        PSCENC =       533.01422461
  Ewald energy   TEWEN  =     -9248.00897242
  -Hartree energ DENC   =     -2991.18969203
  -exchange      EXHF   =         0.00000000
  -V(xc)+E(xc)   XCENC  =        70.59019786
  PAW double counting   =     11758.56616409   -12081.01167860
  entropy T*S    EENTRO =        -0.00638576
  eigenvalues    EBANDS =       623.21209373
  atomic energy  EATOM  =     11229.46195210
  Solvation  Ediel_sol  =         0.00000000
  ---------------------------------------------------
  free energy    TOTEN  =      -105.37209643 eV

  energy without entropy =     -105.36571067  energy(sigma->0) =     -105.36890355


--------------------------------------------------------------------------------------------------------




--------------------------------------- Iteration      1(   9)  ---------------------------------------


    POTLOK:  cpu time    0.0974: real time    0.0974
    SETDIJ:  cpu time    0.0362: real time    0.0362
    EDDIAG:  cpu time    3.3619: real time    3.3650
  RMM-DIIS:  cpu time   10.6366: real time   10.6455
    ORTHCH:  cpu time    0.6408: real time    0.6414
       DOS:  cpu time    0.0037: real time    0.0037
    CHARGE:  cpu time    0.7082: real time    0.7087
    MIXING:  cpu time    0.0019: real time    0.0019
    --------------------------------------------
      LOOP:  cpu time   15.4866: real time   15.4999

 eigenvalue-minimisations  : 13493
 total energy-change (2. order) : 0.1430312E+01  (-0.5157663E+00)
 number of electron     127.9999590 magnetization       0.6240319
 augmentation part       66.5926581 magnetization       0.7775289

 Broyden mixing:
  rms(total) = 0.15626E+01    rms(broyden)= 0.15625E+01
  rms(prec ) = 0.26850E+01
  weight for this iteration     100.00

 eigenvalues of (default mixing * dielectric matrix)
  average eigenvalue GAMMA=   0.5036
  1.0351  0.4602  0.3624  0.1567

 Free energy of the ion-electron system (eV)
  ---------------------------------------------------
  alpha Z        PSCENC =       533.01422461
  Ewald energy   TEWEN  =     -9248.00897242
  -Hartree energ DENC   =     -3008.08763613
  -exchange      EXHF   =         0.00000000
  -V(xc)+E(xc)   XCENC  =        71.68964857
  PAW double counting   =     12039.76954751   -12372.82961443
  entropy T*S    EENTRO =        -0.00359791
  eigenvalues    EBANDS =       651.05266416
  atomic energy  EATOM  =     11229.46195210
  Solvation  Ediel_sol  =         0.00000000
  ---------------------------------------------------
  free energy    TOTEN  =      -103.94178394 eV

  energy without entropy =     -103.93818603  energy(sigma->0) =     -103.93998499


--------------------------------------------------------------------------------------------------------




--------------------------------------- Iteration      1(  10)  ---------------------------------------


    POTLOK:  cpu time    0.1046: real time    0.1055
    SETDIJ:  cpu time    0.0384: real time    0.0385
    EDDIAG:  cpu time    3.4732: real time    3.4766
  RMM-DIIS:  cpu time   10.6539: real time   10.6632
    ORTHCH:  cpu time    0.6415: real time    0.6421
       DOS:  cpu time    0.0040: real time    0.0040
    CHARGE:  cpu time    0.7114: real time    0.7119
    MIXING:  cpu time    0.0020: real time    0.0020
    --------------------------------------------
      LOOP:  cpu time   15.6289: real time   15.6439

 eigenvalue-minimisations  : 13440
 total energy-change (2. order) : 0.6711858E+00  (-0.2322788E+00)
 number of electron     127.9999549 magnetization       0.5991882
 augmentation part       67.6356462 magnetization       0.2093039

 Broyden mixing:
  rms(total) = 0.10304E+01    rms(broyden)= 0.10303E+01
  rms(prec ) = 0.18761E+01
  weight for this iteration     100.00

 eigenvalues of (default mixing * dielectric matrix)
  average eigenvalue GAMMA=   0.4846
  1.0765  0.5079  0.5079  0.1654  0.1654

 Free energy of the ion-electron system (eV)
  ---------------------------------------------------
  alpha Z        PSCENC =       533.01422461
  Ewald energy   TEWEN  =     -9248.00897242
  -Hartree energ DENC   =     -2990.68767998
  -exchange      EXHF   =         0.00000000
  -V(xc)+E(xc)   XCENC  =        71.19946916
  PAW double counting   =     12228.33430748   -12561.71606689
  entropy T*S    EENTRO =        -0.00237662
  eigenvalues    EBANDS =       635.13454439
  atomic energy  EATOM  =     11229.46195210
  Solvation  Ediel_sol  =         0.00000000
  ---------------------------------------------------
  free energy    TOTEN  =      -103.27059817 eV

  energy without entropy =     -103.26822154  energy(sigma->0) =     -103.26940985


--------------------------------------------------------------------------------------------------------




--------------------------------------- Iteration      1(  11)  ---------------------------------------


    POTLOK:  cpu time    0.0992: real time    0.0993
    SETDIJ:  cpu time    0.0366: real time    0.0366
    EDDIAG:  cpu time    3.3875: real time    3.3908
  RMM-DIIS:  cpu time   10.6221: real time   10.6316
    ORTHCH:  cpu time    0.6404: real time    0.6411
       DOS:  cpu time    0.0037: real time    0.0037
    CHARGE:  cpu time    0.7165: real time    0.7170
    MIXING:  cpu time    0.0020: real time    0.0020
    --------------------------------------------
      LOOP:  cpu time   15.5081: real time   15.5222

 eigenvalue-minimisations  : 13481
 total energy-change (2. order) : 0.1417112E+00  (-0.7831444E-01)
 number of electron     127.9999545 magnetization       0.4539451
 augmentation part       67.8206313 magnetization       0.5845767

 Broyden mixing:
  rms(total) = 0.75088E+00    rms(broyden)= 0.75086E+00
  rms(prec ) = 0.12205E+01
  weight for this iteration     100.00

 eigenvalues of (default mixing * dielectric matrix)
  average eigenvalue GAMMA=   0.4485
  0.9989  0.5603  0.5603  0.2605  0.1624  0.1487

 Free energy of the ion-electron system (eV)
  ---------------------------------------------------
  alpha Z        PSCENC =       533.01422461
  Ewald energy   TEWEN  =     -9248.00897242
  -Hartree energ DENC   =     -2984.46349042
  -exchange      EXHF   =         0.00000000
  -V(xc)+E(xc)   XCENC  =        71.82168065
  PAW double counting   =     12386.95274568   -12722.42380511
  entropy T*S    EENTRO =        -0.00244666
  eigenvalues    EBANDS =       630.51922465
  atomic energy  EATOM  =     11229.46195210
  Solvation  Ediel_sol  =         0.00000000
  ---------------------------------------------------
  free energy    TOTEN  =      -103.12888692 eV

  energy without entropy =     -103.12644026  energy(sigma->0) =     -103.12766359


--------------------------------------------------------------------------------------------------------




--------------------------------------- Iteration      1(  12)  ---------------------------------------


    POTLOK:  cpu time    0.0972: real time    0.0973
    SETDIJ:  cpu time    0.0361: real time    0.0361
    EDDIAG:  cpu time    3.4070: real time    3.4103
  RMM-DIIS:  cpu time   10.7361: real time   10.7454
    ORTHCH:  cpu time    0.6419: real time    0.6425
       DOS:  cpu time    0.0039: real time    0.0040
    CHARGE:  cpu time    0.7131: real time    0.7137
    MIXING:  cpu time    0.0022: real time    0.0022
    --------------------------------------------
      LOOP:  cpu time   15.6376: real time   15.6515

 eigenvalue-minimisations  : 13440
 total energy-change (2. order) : 0.1582011E+00  (-0.3447989E-01)
 number of electron     127.9999560 magnetization       0.1649902
 augmentation part       67.5496442 magnetization       0.1177276

 Broyden mixing:
  rms(total) = 0.38357E+00    rms(broyden)= 0.38355E+00
  rms(prec ) = 0.40289E+00
  weight for this iteration     100.00

 eigenvalues of (default mixing * dielectric matrix)
  average eigenvalue GAMMA=   0.6701
  1.7356  0.9607  0.8045  0.6466  0.2245  0.1734  0.1455

 Free energy of the ion-electron system (eV)
  ---------------------------------------------------
  alpha Z        PSCENC =       533.01422461
  Ewald energy   TEWEN  =     -9248.00897242
  -Hartree energ DENC   =     -2987.20634936
  -exchange      EXHF   =         0.00000000
  -V(xc)+E(xc)   XCENC  =        73.01021807
  PAW double counting   =     12508.71191537   -12847.51297728
  entropy T*S    EENTRO =        -0.00249086
  eigenvalues    EBANDS =       635.56179397
  atomic energy  EATOM  =     11229.46195210
  Solvation  Ediel_sol  =         0.00000000
  ---------------------------------------------------
  free energy    TOTEN  =      -102.97068580 eV

  energy without entropy =     -102.96819494  energy(sigma->0) =     -102.96944037


--------------------------------------------------------------------------------------------------------




--------------------------------------- Iteration      1(  13)  ---------------------------------------


    POTLOK:  cpu time    0.0971: real time    0.0972
    SETDIJ:  cpu time    0.0359: real time    0.0359
    EDDIAG:  cpu time    3.4187: real time    3.4220
  RMM-DIIS:  cpu time   11.8448: real time   11.8551
    ORTHCH:  cpu time    0.6413: real time    0.6418
       DOS:  cpu time    0.0036: real time    0.0036
    CHARGE:  cpu time    0.7161: real time    0.7166
    MIXING:  cpu time    0.0023: real time    0.0023
    --------------------------------------------
      LOOP:  cpu time   16.7597: real time   16.7746

 eigenvalue-minimisations  : 14833
 total energy-change (2. order) :-0.1502411E+00  (-0.2389075E-01)
 number of electron     127.9999560 magnetization       0.1279154
 augmentation part       67.7475216 magnetization       0.0430356

 Broyden mixing:
  rms(total) = 0.20953E+00    rms(broyden)= 0.20952E+00
  rms(prec ) = 0.28956E+00
  weight for this iteration     100.00

 eigenvalues of (default mixing * dielectric matrix)
  average eigenvalue GAMMA=   0.6982
  2.1347  0.8710  0.8710  0.5846  0.5846  0.2225  0.1709  0.1462

 Free energy of the ion-electron system (eV)
  ---------------------------------------------------
  alpha Z        PSCENC =       533.01422461
  Ewald energy   TEWEN  =     -9248.00897242
  -Hartree energ DENC   =     -2981.46556373
  -exchange      EXHF   =         0.00000000
  -V(xc)+E(xc)   XCENC  =        74.69021198
  PAW double counting   =     12759.54146393   -13102.19026232
  entropy T*S    EENTRO =        -0.00238976
  eigenvalues    EBANDS =       631.83840867
  atomic energy  EATOM  =     11229.46195210
  Solvation  Ediel_sol  =         0.00000000
  ---------------------------------------------------
  free energy    TOTEN  =      -103.12092694 eV

  energy without entropy =     -103.11853718  energy(sigma->0) =     -103.11973206


--------------------------------------------------------------------------------------------------------




--------------------------------------- Iteration      1(  14)  ---------------------------------------


    POTLOK:  cpu time    0.1046: real time    0.1056
    SETDIJ:  cpu time    0.0380: real time    0.0380
    EDDIAG:  cpu time    3.4910: real time    3.4943
  RMM-DIIS:  cpu time   10.7931: real time   10.8022
    ORTHCH:  cpu time    0.6419: real time    0.6425
       DOS:  cpu time    0.0038: real time    0.0039
    CHARGE:  cpu time    0.7198: real time    0.7204
    MIXING:  cpu time    0.0025: real time    0.0025
    --------------------------------------------
      LOOP:  cpu time   15.7947: real time   15.8093

 eigenvalue-minimisations  : 13666
 total energy-change (2. order) :-0.5960320E-02  (-0.8061865E-02)
 number of electron     127.9999562 magnetization       0.0634512
 augmentation part       67.7040122 magnetization       0.1139167

 Broyden mixing:
  rms(total) = 0.16474E+00    rms(broyden)= 0.16474E+00
  rms(prec ) = 0.22524E+00
  weight for this iteration     100.00

 eigenvalues of (default mixing * dielectric matrix)
  average eigenvalue GAMMA=   0.6953
  2.1985  0.9613  0.9613  0.6388  0.6388  0.1461  0.1716  0.2206  0.3206

 Free energy of the ion-electron system (eV)
  ---------------------------------------------------
  alpha Z        PSCENC =       533.01422461
  Ewald energy   TEWEN  =     -9248.00897242
  -Hartree energ DENC   =     -2981.77689743
  -exchange      EXHF   =         0.00000000
  -V(xc)+E(xc)   XCENC  =        75.04140496
  PAW double counting   =     12817.80244038   -13161.49786480
  entropy T*S    EENTRO =        -0.00251920
  eigenvalues    EBANDS =       632.83934453
  atomic energy  EATOM  =     11229.46195210
  Solvation  Ediel_sol  =         0.00000000
  ---------------------------------------------------
  free energy    TOTEN  =      -103.12688726 eV

  energy without entropy =     -103.12436806  energy(sigma->0) =     -103.12562766


--------------------------------------------------------------------------------------------------------




--------------------------------------- Iteration      1(  15)  ---------------------------------------


    POTLOK:  cpu time    0.0978: real time    0.0979
    SETDIJ:  cpu time    0.0361: real time    0.0362
    EDDIAG:  cpu time    3.4541: real time    3.4572
  RMM-DIIS:  cpu time   10.9590: real time   10.9680
    ORTHCH:  cpu time    0.6408: real time    0.6414
       DOS:  cpu time    0.0040: real time    0.0040
    CHARGE:  cpu time    0.7127: real time    0.7132
    MIXING:  cpu time    0.0027: real time    0.0027
    --------------------------------------------
      LOOP:  cpu time   15.9071: real time   15.9204

 eigenvalue-minimisations  : 13673
 total energy-change (2. order) : 0.6641189E-02  (-0.2215260E-02)
 number of electron     127.9999562 magnetization       0.0453565
 augmentation part       67.6594301 magnetization       0.0290545

 Broyden mixing:
  rms(total) = 0.69700E-01    rms(broyden)= 0.69698E-01
  rms(prec ) = 0.79764E-01
  weight for this iteration     100.00

 eigenvalues of (default mixing * dielectric matrix)
  average eigenvalue GAMMA=   0.7665
  2.0661  1.3953  1.3953  0.7009  0.7009  0.5715  0.1461  0.1715  0.2215  0.2958

 Free energy of the ion-electron system (eV)
  ---------------------------------------------------
  alpha Z        PSCENC =       533.01422461
  Ewald energy   TEWEN  =     -9248.00897242
  -Hartree energ DENC   =     -2982.34352524
  -exchange      EXHF   =         0.00000000
  -V(xc)+E(xc)   XCENC  =        75.06562493
  PAW double counting   =     12853.68083242   -13197.83832410
  entropy T*S    EENTRO =        -0.00264400
  eigenvalues    EBANDS =       633.85058563
  atomic energy  EATOM  =     11229.46195210
  Solvation  Ediel_sol  =         0.00000000
  ---------------------------------------------------
  free energy    TOTEN  =      -103.12024607 eV

  energy without entropy =     -103.11760207  energy(sigma->0) =     -103.11892407


--------------------------------------------------------------------------------------------------------




--------------------------------------- Iteration      1(  16)  ---------------------------------------


    POTLOK:  cpu time    0.0977: real time    0.0978
    SETDIJ:  cpu time    0.0360: real time    0.0360
    EDDIAG:  cpu time    3.4585: real time    3.4618
  RMM-DIIS:  cpu time   11.8717: real time   11.8816
    ORTHCH:  cpu time    0.6444: real time    0.6450
       DOS:  cpu time    0.0038: real time    0.0038
    CHARGE:  cpu time    0.7164: real time    0.7169
    MIXING:  cpu time    0.0028: real time    0.0028
    --------------------------------------------
      LOOP:  cpu time   16.8313: real time   16.8457

 eigenvalue-minimisations  : 14668
 total energy-change (2. order) :-0.4936686E-03  (-0.6180430E-03)
 number of electron     127.9999562 magnetization       0.0080556
 augmentation part       67.6828784 magnetization       0.0053820

 Broyden mixing:
  rms(total) = 0.47332E-01    rms(broyden)= 0.47331E-01
  rms(prec ) = 0.55188E-01
  weight for this iteration     100.00

 eigenvalues of (default mixing * dielectric matrix)
  average eigenvalue GAMMA=   0.8050
  2.4431  1.6145  1.0178  0.8125  0.8125  0.7417  0.5722  0.1461  0.1715  0.2216
  0.3019

 Free energy of the ion-electron system (eV)
  ---------------------------------------------------
  alpha Z        PSCENC =       533.01422461
  Ewald energy   TEWEN  =     -9248.00897242
  -Hartree energ DENC   =     -2981.89052845
  -exchange      EXHF   =         0.00000000
  -V(xc)+E(xc)   XCENC  =        74.95941184
  PAW double counting   =     12872.31083801   -13216.34303397
  entropy T*S    EENTRO =        -0.00253815
  eigenvalues    EBANDS =       633.37790667
  atomic energy  EATOM  =     11229.46195210
  Solvation  Ediel_sol  =         0.00000000
  ---------------------------------------------------
  free energy    TOTEN  =      -103.12073974 eV

  energy without entropy =     -103.11820160  energy(sigma->0) =     -103.11947067


--------------------------------------------------------------------------------------------------------




--------------------------------------- Iteration      1(  17)  ---------------------------------------


    POTLOK:  cpu time    0.0976: real time    0.0978
    SETDIJ:  cpu time    0.0360: real time    0.0360
    EDDIAG:  cpu time    3.4718: real time    3.4751
  RMM-DIIS:  cpu time   12.7497: real time   12.7603
    ORTHCH:  cpu time    0.6434: real time    0.6440
       DOS:  cpu time    0.0040: real time    0.0040
    CHARGE:  cpu time    0.7234: real time    0.7238
    MIXING:  cpu time    0.0030: real time    0.0030
    --------------------------------------------
      LOOP:  cpu time   17.7289: real time   17.7440

 eigenvalue-minimisations  : 15903
 total energy-change (2. order) :-0.1134106E-02  (-0.2403986E-03)
 number of electron     127.9999562 magnetization       0.0010299
 augmentation part       67.6994134 magnetization       0.0007779

 Broyden mixing:
  rms(total) = 0.17063E-01    rms(broyden)= 0.17061E-01
  rms(prec ) = 0.24497E-01
  weight for this iteration     100.00

 eigenvalues of (default mixing * dielectric matrix)
  average eigenvalue GAMMA=   0.8482
  2.1842  2.1636  0.9824  0.9824  0.9145  0.8264  0.7033  0.5805  0.1461  0.1715
  0.2216  0.3020

 Free energy of the ion-electron system (eV)
  ---------------------------------------------------
  alpha Z        PSCENC =       533.01422461
  Ewald energy   TEWEN  =     -9248.00897242
  -Hartree energ DENC   =     -2981.48753291
  -exchange      EXHF   =         0.00000000
  -V(xc)+E(xc)   XCENC  =        75.13197105
  PAW double counting   =     12892.07505900   -13236.23056131
  entropy T*S    EENTRO =        -0.00255213
  eigenvalues    EBANDS =       632.92453816
  atomic energy  EATOM  =     11229.46195210
  Solvation  Ediel_sol  =         0.00000000
  ---------------------------------------------------
  free energy    TOTEN  =      -103.12187385 eV

  energy without entropy =     -103.11932172  energy(sigma->0) =     -103.12059778


--------------------------------------------------------------------------------------------------------




--------------------------------------- Iteration      1(  18)  ---------------------------------------


    POTLOK:  cpu time    0.1055: real time    0.1065
    SETDIJ:  cpu time    0.0378: real time    0.0378
    EDDIAG:  cpu time    3.5504: real time    3.5538
  RMM-DIIS:  cpu time   11.9244: real time   11.9345
    ORTHCH:  cpu time    0.6429: real time    0.6435
       DOS:  cpu time    0.0039: real time    0.0039
    CHARGE:  cpu time    0.7252: real time    0.7257
    MIXING:  cpu time    0.0033: real time    0.0033
    --------------------------------------------
      LOOP:  cpu time   16.9934: real time   17.0091

 eigenvalue-minimisations  : 14620
 total energy-change (2. order) :-0.2695584E-04  (-0.5588831E-04)
 number of electron     127.9999562 magnetization      -0.0018422
 augmentation part       67.6983316 magnetization      -0.0023900

 Broyden mixing:
  rms(total) = 0.68990E-02    rms(broyden)= 0.68982E-02
  rms(prec ) = 0.72889E-02
  weight for this iteration     100.00

 eigenvalues of (default mixing * dielectric matrix)
  average eigenvalue GAMMA=   0.9047
  2.4636  2.4636  1.1972  1.1972  0.8382  0.8382  0.6758  0.6758  0.5696  0.1461
  0.1715  0.2216  0.3022

 Free energy of the ion-electron system (eV)
  ---------------------------------------------------
  alpha Z        PSCENC =       533.01422461
  Ewald energy   TEWEN  =     -9248.00897242
  -Hartree energ DENC   =     -2981.60447359
  -exchange      EXHF   =         0.00000000
  -V(xc)+E(xc)   XCENC  =        75.18548189
[...]
     79      10.7367      0.00000
     80      11.1744      0.00000
     81      11.3795      0.00000
     82      11.7554      0.00000
     83      12.1433      0.00000
     84      12.2565      0.00000


--------------------------------------------------------------------------------------------------------


 soft charge-density along one line, spin component           1
         0         1         2         3         4         5         6         7         8         9
 total charge-density along one line

 soft charge-density along one line, spin component           2
         0         1         2         3         4         5         6         7         8         9
 total charge-density along one line

 pseudopotential strength for first ion, spin component:           1
 -1.580  -0.005  -0.022  -0.017  -0.003  -2.218  -0.004  -0.021
 -0.005  -1.571  -0.006  -0.005   0.010  -0.004  -2.210  -0.006
 -0.022  -0.006  -1.561   0.014   0.003  -0.021  -0.006  -2.200
 -0.017  -0.005   0.014  -1.580   0.017  -0.017  -0.004   0.013
 -0.003   0.010   0.003   0.017  -1.565  -0.003   0.010   0.003
 -2.218  -0.004  -0.021  -0.017  -0.003  -2.787  -0.004  -0.020
 -0.004  -2.210  -0.006  -0.004   0.010  -0.004  -2.779  -0.005
 -0.021  -0.006  -2.200   0.013   0.003  -0.020  -0.005  -2.769
 -0.017  -0.004   0.013  -2.218   0.016  -0.016  -0.004   0.013
 -0.003   0.010   0.003   0.016  -2.203  -0.003   0.009   0.003
 -0.004   0.001  -0.001  -0.004   0.001  -0.004   0.002  -0.001
 -0.008   0.002  -0.001  -0.008   0.002  -0.007   0.002  -0.001
  0.002  -0.006   0.004  -0.003   0.008   0.002  -0.006   0.004
 -0.003  -0.006  -0.009   0.002   0.000  -0.003  -0.006  -0.009
 -0.006  -0.003  -0.000  -0.006   0.000  -0.006  -0.003  -0.000
  0.003  -0.006   0.004  -0.005   0.008   0.002  -0.006   0.004
 -0.005  -0.006  -0.009   0.003   0.000  -0.004  -0.006  -0.009
 -0.006  -0.005  -0.000  -0.006   0.000  -0.006  -0.004  -0.000
 pseudopotential strength for first ion, spin component:           2
 -1.580   0.005   0.022  -0.017   0.003  -2.218   0.004   0.021
  0.005  -1.571  -0.006   0.005   0.010   0.004  -2.210  -0.006
  0.022  -0.006  -1.561  -0.014   0.003   0.021  -0.006  -2.200
 -0.017   0.005  -0.014  -1.580  -0.017  -0.017   0.004  -0.013
  0.003   0.010   0.003  -0.017  -1.564   0.003   0.010   0.003
 -2.218   0.004   0.021  -0.017   0.003  -2.787   0.004   0.020
  0.004  -2.210  -0.006   0.004   0.010   0.004  -2.779  -0.005
  0.021  -0.006  -2.200  -0.013   0.003   0.020  -0.005  -2.769
 -0.017   0.004  -0.013  -2.218  -0.016  -0.016   0.004  -0.013
  0.003   0.010   0.003  -0.016  -2.203   0.003   0.009   0.003
  0.004   0.001  -0.001   0.004   0.001   0.004   0.002  -0.001
  0.008   0.002  -0.001   0.008   0.002   0.007   0.002  -0.001
 -0.002  -0.006   0.004   0.003   0.008  -0.002  -0.006   0.004
  0.003  -0.006  -0.009  -0.002   0.000   0.003  -0.006  -0.009
 -0.006   0.003   0.000  -0.006  -0.000  -0.006   0.003   0.000
 -0.002  -0.006   0.004   0.005   0.008  -0.002  -0.006   0.004
  0.005  -0.006  -0.009  -0.002   0.000   0.004  -0.006  -0.009
 -0.006   0.005   0.000  -0.006  -0.000  -0.006   0.004   0.000
 total augmentation occupancy for first ion, spin component:           1
  1.990  -0.000   0.000   0.010   0.000  -0.529   0.000  -0.000  -0.044  -0.000  -0.000   0.000  -0.000  -0.000   0.035   0.000
 -0.000   2.055  -0.008  -0.000   0.014   0.000  -0.567   0.007   0.000  -0.013  -0.111   0.032   0.035   0.035  -0.000  -0.012
  0.000  -0.008   2.755  -0.000  -0.015  -0.000   0.007  -1.049   0.000   0.009   0.002   0.002   0.015  -0.039   0.000   0.003
  0.010  -0.000  -0.000   1.990  -0.000  -0.044   0.000   0.000  -0.529   0.000  -0.000   0.000  -0.000  -0.000   0.035   0.000
  0.000   0.014  -0.015  -0.000   2.772  -0.000  -0.013   0.009   0.000  -1.059  -0.004  -0.004   0.036   0.004  -0.000   0.006
 -0.529   0.000  -0.000  -0.044  -0.000   0.847   0.000  -0.000   0.063   0.000   0.000  -0.000   0.000   0.000  -0.009  -0.000
  0.000  -0.567   0.007   0.000  -0.013   0.000   0.870  -0.001   0.000   0.002   0.069  -0.020  -0.007  -0.007   0.000   0.002
 -0.000   0.007  -1.049   0.000   0.009  -0.000  -0.001   1.109   0.000  -0.002   0.001  -0.002  -0.018   0.040  -0.000   0.003
 -0.044   0.000   0.000  -0.529   0.000   0.063   0.000   0.000   0.847   0.000   0.000  -0.000   0.000   0.000  -0.009  -0.000
 -0.000  -0.013   0.009   0.000  -1.059   0.000   0.002  -0.002   0.000   1.112  -0.002   0.003  -0.036  -0.003   0.000   0.005
 -0.000  -0.111   0.002  -0.000  -0.004   0.000   0.069   0.001   0.000  -0.002   2.129  -0.284   0.043   0.043   0.000  -0.005
  0.000   0.032   0.002   0.000  -0.004  -0.000  -0.020  -0.002  -0.000   0.003  -0.284   0.048   0.002   0.002  -0.000  -0.001
 -0.000   0.035   0.015  -0.000   0.036   0.000  -0.007  -0.018   0.000  -0.036   0.043   0.002   0.255   0.002   0.000  -0.027
 -0.000   0.035  -0.039  -0.000   0.004   0.000  -0.007   0.040   0.000  -0.003   0.043   0.002   0.002   0.255   0.000  -0.002
  0.035  -0.000   0.000   0.035  -0.000  -0.009   0.000  -0.000  -0.009   0.000   0.000  -0.000   0.000   0.000   0.259  -0.000
  0.000  -0.012   0.003   0.000   0.006  -0.000   0.002   0.003  -0.000   0.005  -0.005  -0.001  -0.027  -0.002  -0.000   0.003
  0.000  -0.012  -0.007   0.000   0.000  -0.000   0.002  -0.005  -0.000  -0.000  -0.005  -0.001  -0.002  -0.027  -0.000   0.000
 -0.012   0.000  -0.000  -0.012   0.000   0.001  -0.000   0.000   0.001  -0.000  -0.000   0.000  -0.000  -0.000  -0.027   0.000
 total augmentation occupancy for first ion, spin component:           2
 -0.000  -0.051   0.250  -0.000   0.047   0.000   0.056  -0.152   0.000  -0.032   0.083   0.001  -0.036   0.127   0.000   0.001
 -0.051   0.000   0.000  -0.051  -0.000   0.056  -0.000  -0.000   0.056   0.000  -0.000  -0.000   0.000   0.000   0.133  -0.000
  0.250   0.000   0.000  -0.166  -0.000  -0.152  -0.000  -0.000   0.103   0.000  -0.000   0.000   0.000  -0.000  -0.012   0.000
 -0.000  -0.051  -0.166  -0.000  -0.193   0.000   0.056   0.104   0.000   0.116   0.083   0.001   0.127  -0.036   0.000  -0.005
  0.047  -0.000  -0.000  -0.193   0.000  -0.031   0.000   0.000   0.116  -0.000   0.000  -0.000   0.000  -0.000   0.021   0.000
  0.000   0.056  -0.152   0.000  -0.031  -0.000  -0.053   0.084  -0.000   0.020  -0.054   0.008   0.021  -0.094  -0.000  -0.002
  0.056  -0.000  -0.000   0.056   0.000  -0.053   0.000   0.000  -0.053  -0.000   0.000  -0.000  -0.000  -0.000  -0.097   0.000
 -0.152  -0.000  -0.000   0.104   0.000   0.084   0.000   0.000  -0.059  -0.000  -0.000  -0.000  -0.000   0.000   0.011  -0.000
  0.000   0.056   0.103   0.000   0.116  -0.000  -0.053  -0.059  -0.000  -0.062  -0.054   0.008  -0.094   0.021  -0.000   0.008
 -0.032   0.000   0.000   0.116  -0.000   0.020  -0.000  -0.000  -0.062   0.000   0.000   0.000  -0.000   0.000  -0.019  -0.000
  0.083  -0.000  -0.000   0.083   0.000  -0.054   0.000  -0.000  -0.054   0.000  -0.000   0.000   0.000   0.000  -0.013   0.000
  0.001  -0.000   0.000   0.001  -0.000   0.008  -0.000  -0.000   0.008   0.000   0.000  -0.000  -0.000  -0.000  -0.001   0.000
 -0.036   0.000   0.000   0.127   0.000   0.021  -0.000  -0.000  -0.094  -0.000   0.000  -0.000   0.000   0.000  -0.008   0.000
  0.127   0.000  -0.000  -0.036  -0.000  -0.094  -0.000   0.000   0.021   0.000   0.000  -0.000   0.000   0.000  -0.008   0.000
  0.000   0.133  -0.012   0.000   0.021  -0.000  -0.097   0.011  -0.000  -0.019  -0.013  -0.001  -0.008  -0.008   0.000   0.001
  0.001  -0.000   0.000  -0.005   0.000  -0.002   0.000  -0.000   0.008  -0.000   0.000   0.000   0.000   0.000   0.001  -0.000
 -0.005  -0.000  -0.000   0.001  -0.000   0.008   0.000   0.000  -0.002   0.000   0.000   0.000   0.000   0.000   0.001  -0.000
 -0.000  -0.004  -0.000  -0.000   0.000   0.000   0.008  -0.000   0.000   0.000  -0.001   0.000   0.001   0.001   0.000  -0.000


------------------------ aborting loop because EDIFF is reached ----------------------------------------





 total charge     

# of ion       s       p       d       tot
------------------------------------------
    1        0.474   0.423   8.373   9.270
    2        0.474   0.423   8.373   9.270
    3        0.472   0.423   8.396   9.291
    4        0.472   0.423   8.396   9.291
    5        0.472   0.423   8.396   9.291
    6        0.472   0.423   8.396   9.291
    7        0.474   0.423   8.373   9.270
    8        0.474   0.423   8.373   9.270
    9        0.327   0.310   4.921   5.557
   10        0.327   0.310   4.921   5.557
   11        0.334   0.324   4.939   5.596
   12        0.334   0.324   4.939   5.597
   13        0.354   0.365   4.927   5.646
   14        0.354   0.365   4.926   5.645
   15        1.247   1.715   0.300   3.263
   16        1.247   1.715   0.300   3.263
--------------------------------------------------
tot          8.306   8.810  97.252 114.369



 magnetization (x)

# of ion       s       p       d       tot
------------------------------------------
    1        0.001   0.004   0.003   0.008
    2       -0.001  -0.004  -0.003  -0.008
    3        0.001  -0.000  -0.002  -0.001
    4       -0.001   0.000   0.002   0.001
    5       -0.001   0.000   0.002   0.001
    6        0.001  -0.000  -0.002  -0.001
    7       -0.001  -0.004  -0.003  -0.008
    8        0.001   0.004   0.003   0.008
    9        0.039   0.023   3.524   3.587
   10       -0.039  -0.023  -3.525  -3.587
   11       -0.041  -0.035  -3.517  -3.592
   12        0.041   0.035   3.516   3.592
   13       -0.036  -0.050  -3.247  -3.333
   14        0.036   0.050   3.247   3.333
   15        0.025   0.027  -0.004   0.048
   16       -0.025  -0.027   0.004  -0.048
--------------------------------------------------
tot          0.000   0.000   0.000   0.000

    CHARGE:  cpu time    0.7208: real time    0.7213
    FORLOC:  cpu time    0.0072: real time    0.0073
    FORNL :  cpu time    5.1857: real time    5.1898
    STRESS:  cpu time   15.4685: real time   15.4809
    FORCOR:  cpu time    0.0996: real time    0.0997
    FORHAR:  cpu time    0.0160: real time    0.0160
    MIXING:  cpu time    0.0037: real time    0.0037
    OFIELD:  cpu time    0.0000: real time    0.0000

  FORCE on cell =-STRESS in cart. coord.  units (eV):
  Direction    XX          YY          ZZ          XY          YZ          ZX
  --------------------------------------------------------------------------------------
  Alpha Z   533.01422   533.01422   533.01422
  Ewald   -2872.22273 -3187.90743 -3187.90743     0.00000     0.00000     0.00000
  Hartree  1195.50768   893.07860   893.07860    -0.00000    -0.00000    -0.00000
  E(xc)    -670.19788  -670.47937  -670.47937    -0.00000    -0.00000    -0.00000
  Local    -679.51627   -65.41231   -65.41231    -0.00000     0.00000    -0.00000
  n-local  -147.59137  -147.74167  -145.57464     0.09588    -0.14022    -0.39482
  augment  1578.08326  1579.74953  1579.74953    -0.00000     0.00000     0.00000
  Kinetic  1061.76386  1056.73843  1070.39180     0.98790     0.78845     1.25165
  Fock        0.00000     0.00000     0.00000     0.00000     0.00000     0.00000
  -------------------------------------------------------------------------------------
  Total      -1.15922    -1.04979    -1.04979     0.00000     0.00000     0.00000
  in kB      -8.79769    -7.96715    -7.96715     0.00000     0.00000     0.00000
  external pressure =       -8.24 kB  Pullay stress =        0.00 kB


 VOLUME and BASIS-vectors are now :
 -----------------------------------------------------------------------------
  energy-cutoff  :      550.00
  volume of cell :      211.11
      direct lattice vectors                 reciprocal lattice vectors
     5.954375046  0.000000000  0.000000000     0.167943738  0.000000000  0.000000000
     0.000000000  5.954375046  0.000000000     0.000000000  0.167943738  0.000000000
     0.000000000  0.000000000  5.954375046     0.000000000  0.000000000  0.167943738

  length of vectors
     5.954375046  5.954375046  5.954375046     0.167943738  0.167943738  0.167943738


 FORCES acting on ions
    electron-ion (+dipol)            ewald-force                    non-local-force                 convergence-correction
 -----------------------------------------------------------------------------------------------
   0.676E-01 0.145E+03 0.145E+03   -.615E-01 -.143E+03 -.143E+03   -.653E-04 -.243E+01 -.243E+01   -.581E-02 0.699E-02 0.699E-02
   -.676E-01 0.145E+03 0.145E+03   0.615E-01 -.143E+03 -.143E+03   0.653E-04 -.243E+01 -.243E+01   0.581E-02 0.699E-02 0.699E-02
   0.676E-01 -.145E+03 0.145E+03   -.615E-01 0.143E+03 -.143E+03   -.653E-04 0.243E+01 -.243E+01   -.581E-02 -.699E-02 0.699E-02
   -.676E-01 -.145E+03 0.145E+03   0.615E-01 0.143E+03 -.143E+03   0.653E-04 0.243E+01 -.243E+01   0.581E-02 -.699E-02 0.699E-02
   0.676E-01 0.145E+03 -.145E+03   -.615E-01 -.143E+03 0.143E+03   -.653E-04 -.243E+01 0.243E+01   -.581E-02 0.699E-02 -.699E-02
   -.676E-01 0.145E+03 -.145E+03   0.615E-01 -.143E+03 0.143E+03   0.653E-04 -.243E+01 0.243E+01   0.581E-02 0.699E-02 -.699E-02
   0.676E-01 -.145E+03 -.145E+03   -.615E-01 0.143E+03 0.143E+03   -.653E-04 0.243E+01 0.243E+01   -.581E-02 -.699E-02 -.699E-02
   -.676E-01 -.145E+03 -.145E+03   0.615E-01 0.143E+03 0.143E+03   0.653E-04 0.243E+01 0.243E+01   0.581E-02 -.699E-02 -.699E-02
   0.191E-12 0.147E-11 0.124E-11   -.116E-13 0.149E-13 0.109E-13   0.000E+00 0.000E+00 0.000E+00   -.117E-13 -.429E-13 0.325E-13
   -.219E-13 0.217E-12 -.459E-13   0.524E-13 -.277E-13 0.535E-13   0.000E+00 0.000E+00 0.000E+00   0.435E-13 -.379E-13 0.189E-13
   -.238E-13 -.467E-13 0.197E-12   0.599E-13 0.302E-13 -.417E-13   0.000E+00 0.000E+00 0.000E+00   0.572E-13 0.630E-13 -.385E-13
   0.188E-12 -.435E-13 0.256E-11   -.124E-13 0.161E-13 0.150E-13   0.000E+00 0.000E+00 0.000E+00   -.246E-13 0.629E-13 -.483E-13
   0.183E-12 0.307E-12 0.108E-11   -.197E-12 -.708E-13 -.261E-13   0.000E+00 0.000E+00 0.000E+00   -.418E-13 -.475E-13 -.520E-13
   -.317E-13 0.208E-12 0.186E-12   0.897E-14 0.430E-13 -.262E-13   0.000E+00 0.000E+00 0.000E+00   0.624E-13 -.474E-13 -.482E-13
   -.886E-14 -.238E-13 -.146E-13   -.440E-13 -.170E-13 -.214E-13   0.000E+00 0.000E+00 0.000E+00   0.121E-13 0.140E-13 0.982E-14
   -.695E-14 0.252E-13 0.532E-12   -.381E-13 -.991E-14 0.141E-13   0.000E+00 0.000E+00 0.000E+00   -.121E-13 0.145E-13 0.128E-13
 -----------------------------------------------------------------------------------------------
   0.166E-10 0.170E-10 0.106E-09   -.789E-15 0.356E-13 -.219E-13   0.000E+00 -.888E-15 -.133E-14   0.405E-13 0.806E-13 -.520E-12


 POSITION                                       TOTAL-FORCE (eV/Angst)
 -----------------------------------------------------------------------------------
      1.48866      1.56717      1.56717         0.000170     -0.005186     -0.005186
      4.46571      1.56717      1.56717        -0.000170     -0.005186     -0.005186
      1.48866      4.38721      1.56717         0.000170      0.005186     -0.005186
      4.46571      4.38721      1.56717        -0.000170      0.005186     -0.005186
      1.48866      1.56717      4.38721         0.000170     -0.005186      0.005186
      4.46571      1.56717      4.38721        -0.000170     -0.005186      0.005186
      1.48866      4.38721      4.38721         0.000170      0.005186      0.005186
      4.46571      4.38721      4.38721        -0.000170      0.005186      0.005186
      2.97719      2.97719      0.00000         0.000000      0.000000      0.000000
      0.00000      2.97719      0.00000         0.000000      0.000000      0.000000
      0.00000      0.00000      2.97719         0.000000      0.000000      0.000000
      2.97719      0.00000      2.97719         0.000000      0.000000      0.000000
      2.97719      2.97719      2.97719         0.000000      0.000000      0.000000
      0.00000      2.97719      2.97719         0.000000      0.000000      0.000000
      0.00000      0.00000      0.00000         0.000000      0.000000      0.000000
      2.97719      0.00000      0.00000         0.000000      0.000000      0.000000
 -----------------------------------------------------------------------------------
    total drift:                                0.000000      0.000000      0.000000


--------------------------------------------------------------------------------------------------------



  FREE ENERGIE OF THE ION-ELECTRON SYSTEM (eV)
  ---------------------------------------------------
  free  energy   TOTEN  =      -103.12191647 eV

  energy  without entropy=     -103.11935246  energy(sigma->0) =     -103.12063447



--------------------------------------------------------------------------------------------------------


    POTLOK:  cpu time    0.1364: real time    0.1365


--------------------------------------------------------------------------------------------------------




--------------------------------------------------------------------------------------------------------


  
 reached required accuracy - stopping structural energy minimisation
     LOOP+:  cpu time  399.7765: real time  400.9568
    4ORBIT:  cpu time    0.0000: real time    0.0000



 total charge     

# of ion       s       p       d       tot
------------------------------------------
    1        0.474   0.423   8.373   9.270
    2        0.474   0.423   8.373   9.270
    3        0.472   0.423   8.396   9.291
    4        0.472   0.423   8.396   9.291
    5        0.472   0.423   8.396   9.291
    6        0.472   0.423   8.396   9.291
    7        0.474   0.423   8.373   9.270
    8        0.474   0.423   8.373   9.270
    9        0.327   0.310   4.921   5.557
   10        0.327   0.310   4.921   5.557
   11        0.334   0.324   4.939   5.596
   12        0.334   0.324   4.939   5.597
   13        0.354   0.365   4.927   5.646
   14        0.354   0.365   4.926   5.645
   15        1.247   1.715   0.300   3.263
   16        1.247   1.715   0.300   3.263
--------------------------------------------------
tot          8.306   8.810  97.252 114.369



 magnetization (x)

# of ion       s       p       d       tot
------------------------------------------
    1        0.001   0.004   0.003   0.008
    2       -0.001  -0.004  -0.003  -0.008
    3        0.001  -0.000  -0.002  -0.001
    4       -0.001   0.000   0.002   0.001
    5       -0.001   0.000   0.002   0.001
    6        0.001  -0.000  -0.002  -0.001
    7       -0.001  -0.004  -0.003  -0.008
    8        0.001   0.004   0.003   0.008
    9        0.039   0.023   3.524   3.587
   10       -0.039  -0.023  -3.525  -3.587
   11       -0.041  -0.035  -3.517  -3.592
   12        0.041   0.035   3.516   3.592
   13       -0.036  -0.050  -3.247  -3.333
   14        0.036   0.050   3.247   3.333
   15        0.025   0.027  -0.004   0.048
   16       -0.025  -0.027   0.004  -0.048
--------------------------------------------------
tot          0.000   0.000   0.000   0.000


 total amount of memory used by VASP MPI-rank0   103323. kBytes
=======================================================================

   base      :      30000. kBytes
   nonlr-proj:       6816. kBytes
   fftplans  :       1269. kBytes
   grid      :       6573. kBytes
   one-center:        497. kBytes
   wavefun   :      58168. kBytes

  
  
 General timing and accounting informations for this job:
 ========================================================
  
                  Total CPU time used (sec):      410.411
                            User time (sec):      388.232
                          System time (sec):       22.179
                         Elapsed time (sec):      417.865
  
                   Maximum memory used (kb):      136572.
                   Average memory used (kb):           0.
  
                          Minor page faults:     10001673
                          Major page faults:           20
                 Voluntary context switches:         2169
