 vasp.5.4.4.18Apr17-6-g9f103f2a35 (build May 21 2018 20:56:50) complex           
 executed on             LinuxGNU date 2021.10.15  15:42:50
 running on   12 total cores
 distrk:  each k-point on   12 cores,    1 groups
 distr:  one band on NCORES_PER_BAND=   1 cores,   12 groups


--------------------------------------------------------------------------------------------------------


 INCAR:
 POTCAR:    PAW_PBE Ni 02Aug2007                  
 POTCAR:    PAW_PBE Mn 06Sep2000                  
 POTCAR:    PAW_PBE In 08Apr2002                  

 ----------------------------------------------------------------------------- 
|                                                                             |
|           W    W    AA    RRRRR   N    N  II  N    N   GGGG   !!!           |
|           W    W   A  A   R    R  NN   N  II  NN   N  G    G  !!!           |
|           W    W  A    A  R    R  N N  N  II  N N  N  G       !!!           |
|           W WW W  AAAAAA  RRRRR   N  N N  II  N  N N  G  GGG   !            |
|           WW  WW  A    A  R   R   N   NN  II  N   NN  G    G                |
|           W    W  A    A  R    R  N    N  II  N    N   GGGG   !!!           |
|                                                                             |
|      For optimal performance we recommend to set                            |
|        NCORE= 4 - approx SQRT( number of cores)                             |
|      NCORE specifies how many cores store one orbital (NPAR=cpu/NCORE).     |
|      This setting can  greatly improve the performance of VASP for DFT.     |
|      The default,   NCORE=1            might be grossly inefficient         |
|      on modern multi-core architectures or massively parallel machines.     |
|      Do your own testing !!!!                                               |
|      Unfortunately you need to use the default for GW and RPA calculations. |
|      (for HF NCORE is supported but not extensively tested yet)             |
|                                                                             |
 ----------------------------------------------------------------------------- 

 POTCAR:    PAW_PBE Ni 02Aug2007                  
   VRHFIN =Ni:                                                                  
   LEXCH  = PE                                                                  
   EATOM  =  1077.6739 eV,   79.2068 Ry                                         
                                                                                
   TITEL  = PAW_PBE Ni 02Aug2007                                                
   LULTRA =        F    use ultrasoft PP ?                                      
   IUNSCR =        1    unscreen: 0-lin 1-nonlin 2-no                           
   RPACOR =    2.000    partial core radius                                     
   POMASS =   58.690; ZVAL   =   10.000    mass and valenz                      
   RCORE  =    2.300    outmost cutoff radius                                   
   RWIGS  =    2.430; RWIGS  =    1.286    wigner-seitz radius (au A)           
   ENMAX  =  269.532; ENMIN  =  202.149 eV                                      
   RCLOC  =    1.201    cutoff for local pot                                    
   LCOR   =        T    correct aug charges                                     
   LPAW   =        T    paw PP                                                  
   EAUG   =  544.565                                                            
   DEXC   =    0.000                                                            
   RMAX   =    2.357    core radius for proj-oper                               
   RAUG   =    1.300    factor for augmentation sphere                          
   RDEP   =    2.390    radius for radial grids                                 
   RDEPT  =    1.838    core radius for aug-charge                              
                                                                                
   Atomic configuration                                                         
    9 entries                                                                   
     n  l   j            E        occ.                                          
     1  0  0.50     -8206.4253   2.0000                                         
     2  0  0.50      -976.1748   2.0000                                         
     2  1  1.50      -839.0571   6.0000                                         
     3  0  0.50      -105.9991   2.0000                                         
     3  1  1.50       -66.4603   6.0000                                         
     3  2  2.50        -4.6458   9.0000                                         
     4  0  0.50        -4.4926   1.0000                                         
     4  1  1.50        -4.0817   0.0000                                         
     4  3  2.50        -1.3606   0.0000                                         
   Description                                                                  
     l       E           TYP  RCUT    TYP  RCUT                                 
     2     -4.6457903     23  2.300                                             
     2     -6.0063729     23  2.300                                             
     0     -4.4925590     23  2.300                                             
     0      5.0102601     23  2.300                                             
     1     -2.7211652     23  2.300                                             
     1     16.5183231     23  2.300                                             
  local pseudopotential read in
  partial core-charges read in
  partial kinetic energy density read in
  atomic valenz-charges read in
  non local Contribution for L=           2  read in
    real space projection operators read in
  non local Contribution for L=           2  read in
    real space projection operators read in
  non local Contribution for L=           0  read in
    real space projection operators read in
  non local Contribution for L=           0  read in
    real space projection operators read in
  non local Contribution for L=           1  read in
    real space projection operators read in
  non local Contribution for L=           1  read in
    real space projection operators read in
    PAW grid and wavefunctions read in

   number of l-projection  operators is LMAX  =           6
   number of lm-projection operators is LMMAX =          18

 POTCAR:    PAW_PBE Mn 06Sep2000                  
   VRHFIN =Mn: d6 s1                                                            
   LEXCH  = PE                                                                  
   EATOM  =   416.7541 eV,   30.6306 Ry                                         
                                                                                
   TITEL  = PAW_PBE Mn 06Sep2000                                                
   LULTRA =        F    use ultrasoft PP ?                                      
   IUNSCR =        1    unscreen: 0-lin 1-nonlin 2-no                           
   RPACOR =    2.000    partial core radius                                     
   POMASS =   54.938; ZVAL   =    7.000    mass and valenz                      
   RCORE  =    2.300    outmost cutoff radius                                   
   RWIGS  =    2.500; RWIGS  =    1.323    wigner-seitz radius (au A)           
   ENMAX  =  269.864; ENMIN  =  202.398 eV                                      
   RCLOC  =    1.725    cutoff for local pot                                    
   LCOR   =        T    correct aug charges                                     
   LPAW   =        T    paw PP                                                  
   EAUG   =  500.711                                                            
   DEXC   =    0.000                                                            
   RMAX   =    2.343    core radius for proj-oper                               
   RAUG   =    1.300    factor for augmentation sphere                          
   RDEP   =    2.338    radius for radial grids                                 
   RDEPT  =    1.911    core radius for aug-charge                              
                                                                                
   Atomic configuration                                                         
    9 entries                                                                   
     n  l   j            E        occ.                                          
     1  0  0.50     -6424.8288   2.0000                                         
     2  0  0.50      -739.1154   2.0000                                         
     2  1  1.50      -625.3949   6.0000                                         
     3  0  0.50       -81.6100   2.0000                                         
     3  1  1.50       -50.4667   6.0000                                         
     3  2  2.50        -3.3745   6.0000                                         
     4  0  0.50        -4.1331   1.0000                                         
     4  1  0.50        -4.0817   0.0000                                         
     4  3  2.50        -1.3606   0.0000                                         
   Description                                                                  
     l       E           TYP  RCUT    TYP  RCUT                                 
     2     -3.3744664     23  2.300                                             
     2     -4.7350490     23  2.300                                             
     0     -4.1331408     23  2.300                                             
     0      7.6656614     23  2.300                                             
     1     -2.7211652     23  2.300                                             
     1     20.4087390     23  2.300                                             
  local pseudopotential read in
  partial core-charges read in
  partial kinetic energy density read in
  atomic valenz-charges read in
  non local Contribution for L=           2  read in
    real space projection operators read in
  non local Contribution for L=           2  read in
    real space projection operators read in
  non local Contribution for L=           0  read in
    real space projection operators read in
  non local Contribution for L=           0  read in
    real space projection operators read in
  non local Contribution for L=           1  read in
    real space projection operators read in
  non local Contribution for L=           1  read in
    real space projection operators read in
    PAW grid and wavefunctions read in

   number of l-projection  operators is LMAX  =           6
   number of lm-projection operators is LMMAX =          18

 POTCAR:    PAW_PBE In 08Apr2002                  
   VRHFIN =In: s2p1                                                             
   LEXCH  = PE                                                                  
   EATOM  =    53.7908 eV,    3.9535 Ry                                         
                                                                                
   TITEL  = PAW_PBE In 08Apr2002                                                
   LULTRA =        F    use ultrasoft PP ?                                      
   IUNSCR =        1    unscreen: 0-lin 1-nonlin 2-no                           
   RPACOR =    2.400    partial core radius                                     
   POMASS =  114.820; ZVAL   =    3.000    mass and valenz                      
   RCORE  =    3.100    outmost cutoff radius                                   
   RWIGS  =    3.170; RWIGS  =    1.677    wigner-seitz radius (au A)           
   ENMAX  =   95.934; ENMIN  =   71.951 eV                                      
   ICORE  =        3    local potential                                         
   LCOR   =        T    correct aug charges                                     
   LPAW   =        T    paw PP                                                  
   EAUG   =  237.125                                                            
   DEXC   =    0.000                                                            
   RMAX   =    3.168    core radius for proj-oper                               
   RAUG   =    1.300    factor for augmentation sphere                          
   RDEP   =    3.187    radius for radial grids                                 
   RDEPT  =    2.711    core radius for aug-charge                              
                                                                                
   Atomic configuration                                                         
   13 entries                                                                   
     n  l   j            E        occ.                                          
     1  0  0.50    -27747.9169   2.0000                                         
     2  0  0.50     -4154.4438   2.0000                                         
     2  1  1.50     -3728.4305   6.0000                                         
     3  0  0.50      -788.3680   2.0000                                         
     3  1  1.50      -648.9215   6.0000                                         
     3  2  2.50      -432.5893  10.0000                                         
     4  0  0.50      -119.6363   2.0000                                         
     4  1  1.50       -78.1086   6.0000                                         
     4  2  2.50       -18.6227  10.0000                                         
     5  0  0.50        -8.2107   2.0000                                         
     5  1  0.50        -2.5185   1.0000                                         
     5  2  2.50        -1.3606   0.0000                                         
     4  3  2.50        -2.7212   0.0000                                         
   Description                                                                  
     l       E           TYP  RCUT    TYP  RCUT                                 
     0     -8.2107306     23  3.100                                             
     0     -6.1485975     23  3.100                                             
     1     -2.5184867     23  3.100                                             
     1      3.2427302     23  3.100                                             
     2     -1.3605826     23  3.100                                             
     3     -1.3605826     23  3.100                                             
  local pseudopotential read in
  partial core-charges read in
  partial kinetic energy density read in
  atomic valenz-charges read in
  non local Contribution for L=           0  read in
    real space projection operators read in
  non local Contribution for L=           0  read in
    real space projection operators read in
  non local Contribution for L=           1  read in
    real space projection operators read in
  non local Contribution for L=           1  read in
    real space projection operators read in
  non local Contribution for L=           2  read in
    real space projection operators read in
    PAW grid and wavefunctions read in

   number of l-projection  operators is LMAX  =           5
   number of lm-projection operators is LMMAX =          13

 Optimization of the real space projectors (new method)

 maximal supplied QI-value         = 16.25
 optimisation between [QCUT,QGAM] = [ 11.86, 23.89] = [ 39.41,159.82] Ry 
 Optimized for a Real-space Cutoff    1.33 Angstroem

   l    n(q)    QCUT    max X(q) W(low)/X(q) W(high)/X(q)  e(spline) 
   2      9    11.864    60.317    0.21E-03    0.51E-03    0.25E-06
   2      9    11.864    55.921    0.21E-03    0.51E-03    0.26E-06
   0      9    11.864    51.690    0.22E-03    0.30E-04    0.17E-06
   0      9    11.864    30.015    0.20E-03    0.28E-04    0.15E-06
   1      9    11.864    18.849    0.76E-04    0.33E-03    0.17E-06
   1      9    11.864    14.624    0.60E-04    0.28E-03    0.15E-06
 Optimization of the real space projectors (new method)

 maximal supplied QI-value         = 16.25
 optimisation between [QCUT,QGAM] = [ 11.86, 23.89] = [ 39.41,159.82] Ry 
 Optimized for a Real-space Cutoff    1.36 Angstroem

   l    n(q)    QCUT    max X(q) W(low)/X(q) W(high)/X(q)  e(spline) 
   2      9    11.864   110.144    0.49E-03    0.50E-03    0.21E-06
   2      9    11.864   103.200    0.49E-03    0.51E-03    0.22E-06
   0     10    11.864    68.437    0.12E-03    0.41E-04    0.21E-06
   0     10    11.864    33.971    0.11E-03    0.36E-04    0.19E-06
   1      9    11.864    17.065    0.24E-03    0.26E-03    0.93E-07
   1      9    11.864    12.540    0.19E-03    0.20E-03    0.80E-07
 Optimization of the real space projectors (new method)

 maximal supplied QI-value         = 12.09
 optimisation between [QCUT,QGAM] = [ 11.97, 23.95] = [ 40.14,160.58] Ry 
 Optimized for a Real-space Cutoff    1.63 Angstroem

   l    n(q)    QCUT    max X(q) W(low)/X(q) W(high)/X(q)  e(spline) 
   0     12    11.973   106.980    0.33E-03    0.16E-03    0.25E-05
   0     12    11.973    81.086    0.37E-03    0.18E-03    0.28E-05
   1     11    11.973    53.097    0.22E-03    0.42E-03    0.40E-05
   1     11    11.973    32.621    0.20E-03    0.40E-03    0.37E-05
   2     11    11.973     8.820    0.30E-03    0.17E-03    0.41E-06
  PAW_PBE Ni 02Aug2007                  :
 energy of atom  1       EATOM=-1077.6739
 kinetic energy error for atom=    0.0027 (will be added to EATOM!!)
  PAW_PBE Mn 06Sep2000                  :
 energy of atom  2       EATOM= -416.7541
 kinetic energy error for atom=    0.0022 (will be added to EATOM!!)
  PAW_PBE In 08Apr2002                  :
 energy of atom  3       EATOM=  -53.7908
 kinetic energy error for atom=    0.0000 (will be added to EATOM!!)


 POSCAR: Ni2MnIn                                 
  positions in direct lattice
  velocities in cartesian coordinates
 exchange correlation table for  LEXCH =        8
   RHO(1)=    0.500       N(1)  =     2000
   RHO(2)=  100.500       N(2)  =     4000



--------------------------------------------------------------------------------------------------------


 ion  position               nearest neighbor table
   1  0.246  0.254  0.269-  14 2.49  13 2.52  11 2.52  12 2.55  10 2.62  15 2.65  16 2.65   9 2.67
                             5 2.75   3 2.93   2 2.93   2 3.03   3 3.03
   2  0.754  0.254  0.269-  14 2.49  13 2.52  11 2.52  12 2.55  10 2.62  15 2.65  16 2.65   9 2.67
                             6 2.75   4 2.93   1 2.93   4 3.03   1 3.03
   3  0.246  0.746  0.269-  14 2.49  13 2.52  11 2.52  12 2.55  10 2.62  15 2.65  16 2.65   9 2.67
                             7 2.75   4 2.93   1 2.93   1 3.03   4 3.03
   4  0.754  0.746  0.269-  14 2.49  13 2.52  11 2.52  12 2.55  10 2.62  15 2.65  16 2.65   9 2.67
                             8 2.75   3 2.93   2 2.93   2 3.03   3 3.03
   5  0.246  0.254  0.731-  14 2.49  13 2.52  11 2.52  12 2.55  10 2.62  15 2.65  16 2.65   9 2.67
                             1 2.75   6 2.93   7 2.93   6 3.03   7 3.03
   6  0.754  0.254  0.731-  14 2.49  13 2.52  11 2.52  12 2.55  10 2.62  15 2.65  16 2.65   9 2.67
                             2 2.75   5 2.93   8 2.93   8 3.03   5 3.03
   7  0.246  0.746  0.731-  14 2.49  13 2.52  11 2.52  12 2.55  10 2.62  15 2.65  16 2.65   9 2.67
                             3 2.75   5 2.93   8 2.93   5 3.03   8 3.03
   8  0.754  0.746  0.731-  14 2.49  13 2.52  11 2.52  12 2.55  10 2.62  15 2.65  16 2.65   9 2.67
                             4 2.75   6 2.93   7 2.93   6 3.03   7 3.03
   9  0.500  0.000  0.000-   1 2.67   2 2.67   3 2.67   4 2.67   5 2.67   6 2.67   7 2.67   8 2.67
                            12 2.98  15 2.98  16 2.98  12 2.98  16 2.98  15 2.98
  10  0.000  0.500  0.000-   1 2.62   2 2.62   3 2.62   4 2.62   5 2.62   6 2.62   7 2.62   8 2.62
                            14 2.98  15 2.98  16 2.98  14 2.98  15 2.98  16 2.98
  11  0.000  0.000  0.500-   1 2.52   2 2.52   3 2.52   4 2.52   5 2.52   6 2.52   7 2.52   8 2.52
                            12 2.98  14 2.98  15 2.98  15 2.98  14 2.98  12 2.98
  12  0.500  0.000  0.500-   1 2.55   2 2.55   3 2.55   4 2.55   5 2.55   6 2.55   7 2.55   8 2.55
                             9 2.98  11 2.98  13 2.98   9 2.98  13 2.98  11 2.98
  13  0.500  0.500  0.500-   1 2.52   2 2.52   3 2.52   4 2.52   5 2.52   6 2.52   7 2.52   8 2.52
                            12 2.98  14 2.98  16 2.98  16 2.98  12 2.98  14 2.98
  14  0.000  0.500  0.500-   1 2.49   2 2.49   3 2.49   4 2.49   5 2.49   6 2.49   7 2.49   8 2.49
                            10 2.98  11 2.98  13 2.98  10 2.98  11 2.98  13 2.98
  15  0.000  0.000  0.000-   1 2.65   2 2.65   3 2.65   4 2.65   5 2.65   6 2.65   7 2.65   8 2.65
                             9 2.98  10 2.98  11 2.98  11 2.98  10 2.98   9 2.98
  16  0.500  0.500  0.000-   1 2.65   2 2.65   3 2.65   4 2.65   5 2.65   6 2.65   7 2.65   8 2.65
                             9 2.98  10 2.98  13 2.98  13 2.98   9 2.98  10 2.98

  LATTYP: Found a simple cubic cell.
 ALAT       =     5.9569190785
  
  Lattice vectors:
  
 A1 = (   5.9569190785,   0.0000000000,   0.0000000000)
 A2 = (   0.0000000000,   5.9569190785,   0.0000000000)
 A3 = (   0.0000000000,   0.0000000000,   5.9569190785)


Analysis of symmetry for initial positions (statically):
=====================================================================
 Subroutine PRICEL returns:
 Original cell was already a primitive cell.
 

 Routine SETGRP: Setting up the symmetry group for a 
 simple cubic supercell.


 Subroutine GETGRP returns: Found 16 space group operations
 (whereof  8 operations were pure point group operations)
 out of a pool of 48 trial point group operations.


The static configuration has the point symmetry D_2h.
 The point group associated with its full space group is D_4h.


Analysis of symmetry for dynamics (positions and initial velocities):
=====================================================================
 Subroutine PRICEL returns:
 Original cell was already a primitive cell.
 

 Routine SETGRP: Setting up the symmetry group for a 
 simple cubic supercell.


 Subroutine GETGRP returns: Found 16 space group operations
 (whereof  8 operations were pure point group operations)
 out of a pool of 48 trial point group operations.


The dynamic configuration has the point symmetry D_2h.
 The point group associated with its full space group is D_4h.


Analysis of structural, dynamic, and magnetic symmetry:
=====================================================================
 Subroutine PRICEL returns:
 Original cell was already a primitive cell.
 

 Routine SETGRP: Setting up the symmetry group for a 
 simple cubic supercell.


 Subroutine GETGRP returns: Found 16 space group operations
 (whereof  8 operations were pure point group operations)
 out of a pool of 48 trial point group operations.


The magnetic configuration has the point symmetry D_2h.
 The point group associated with its full space group is D_4h.


 Subroutine INISYM returns: Found 16 space group operations
 (whereof  8 operations are pure point group operations),
 and found     1 'primitive' translations



 KPOINTS: k-points                                

Automatic generation of k-mesh.
Space group operators:
 irot       det(A)        alpha          n_x          n_y          n_z        tau_x        tau_y        tau_z
    1     1.000000     0.000000     1.000000     0.000000     0.000000     0.000000     0.000000     0.000000
    2    -1.000000     0.000000     1.000000     0.000000     0.000000     0.000000     0.000000     0.000000
    3     1.000000   180.000000     0.000000     0.000000     1.000000     0.000000     0.000000     0.000000
    4    -1.000000   180.000000     0.000000     0.000000     1.000000     0.000000     0.000000     0.000000
    5     1.000000   180.000000     1.000000     0.000000     0.000000     0.000000     0.000000     0.000000
    6    -1.000000   180.000000     1.000000     0.000000     0.000000     0.000000     0.000000     0.000000
    7     1.000000   180.000000     0.000000     1.000000     0.000000     0.000000     0.000000     0.000000
    8    -1.000000   180.000000     0.000000     1.000000     0.000000     0.000000     0.000000     0.000000
    9     1.000000    90.000000     0.000000     0.000000    -1.000000     0.500000     0.500000     0.000000
   10    -1.000000    90.000000     0.000000     0.000000    -1.000000     0.500000     0.500000     0.000000
   11     1.000000    90.000000     0.000000     0.000000     1.000000     0.500000     0.500000     0.000000
   12    -1.000000    90.000000     0.000000     0.000000     1.000000     0.500000     0.500000     0.000000
   13     1.000000   180.000000     0.707107     0.707107     0.000000     0.500000     0.500000     0.000000
   14    -1.000000   180.000000     0.707107     0.707107     0.000000     0.500000     0.500000     0.000000
   15     1.000000   180.000000     0.707107    -0.707107     0.000000     0.500000     0.500000     0.000000
   16    -1.000000   180.000000     0.707107    -0.707107     0.000000     0.500000     0.500000     0.000000
 
 Subroutine IBZKPT returns following result:
 ===========================================
 
 Found     40 irreducible k-points:
 
 Following reciprocal coordinates:
            Coordinates               Weight
  0.000000  0.000000  0.000000      1.000000
  0.142857  0.000000  0.000000      4.000000
  0.285714  0.000000  0.000000      4.000000
  0.428571  0.000000  0.000000      4.000000
  0.142857  0.142857  0.000000      4.000000
  0.285714  0.142857  0.000000      8.000000
  0.428571  0.142857  0.000000      8.000000
  0.285714  0.285714  0.000000      4.000000
  0.428571  0.285714  0.000000      8.000000
  0.428571  0.428571  0.000000      4.000000
  0.000000  0.000000  0.142857      2.000000
  0.142857  0.000000  0.142857      8.000000
  0.285714  0.000000  0.142857      8.000000
  0.428571  0.000000  0.142857      8.000000
  0.142857  0.142857  0.142857      8.000000
  0.285714  0.142857  0.142857     16.000000
  0.428571  0.142857  0.142857     16.000000
  0.285714  0.285714  0.142857      8.000000
  0.428571  0.285714  0.142857     16.000000
  0.428571  0.428571  0.142857      8.000000
  0.000000  0.000000  0.285714      2.000000
  0.142857  0.000000  0.285714      8.000000
  0.285714  0.000000  0.285714      8.000000
  0.428571  0.000000  0.285714      8.000000
  0.142857  0.142857  0.285714      8.000000
  0.285714  0.142857  0.285714     16.000000
  0.428571  0.142857  0.285714     16.000000
  0.285714  0.285714  0.285714      8.000000
  0.428571  0.285714  0.285714     16.000000
  0.428571  0.428571  0.285714      8.000000
  0.000000  0.000000  0.428571      2.000000
  0.142857  0.000000  0.428571      8.000000
  0.285714  0.000000  0.428571      8.000000
  0.428571  0.000000  0.428571      8.000000
  0.142857  0.142857  0.428571      8.000000
  0.285714  0.142857  0.428571     16.000000
  0.428571  0.142857  0.428571     16.000000
  0.285714  0.285714  0.428571      8.000000
  0.428571  0.285714  0.428571     16.000000
  0.428571  0.428571  0.428571      8.000000
 
 Following cartesian coordinates:
            Coordinates               Weight
  0.000000  0.000000  0.000000      1.000000
  0.138135  0.000000  0.000000      4.000000
  0.276269  0.000000  0.000000      4.000000
  0.414404  0.000000  0.000000      4.000000
  0.138135  0.138135  0.000000      4.000000
  0.276269  0.138135  0.000000      8.000000
  0.414404  0.138135  0.000000      8.000000
  0.276269  0.276269  0.000000      4.000000
  0.414404  0.276269  0.000000      8.000000
  0.414404  0.414404  0.000000      4.000000
  0.000000  0.000000  0.138135      2.000000
  0.138135  0.000000  0.138135      8.000000
  0.276269  0.000000  0.138135      8.000000
  0.414404  0.000000  0.138135      8.000000
  0.138135  0.138135  0.138135      8.000000
  0.276269  0.138135  0.138135     16.000000
  0.414404  0.138135  0.138135     16.000000
  0.276269  0.276269  0.138135      8.000000
  0.414404  0.276269  0.138135     16.000000
  0.414404  0.414404  0.138135      8.000000
  0.000000  0.000000  0.276269      2.000000
  0.138135  0.000000  0.276269      8.000000
  0.276269  0.000000  0.276269      8.000000
  0.414404  0.000000  0.276269      8.000000
  0.138135  0.138135  0.276269      8.000000
  0.276269  0.138135  0.276269     16.000000
  0.414404  0.138135  0.276269     16.000000
  0.276269  0.276269  0.276269      8.000000
  0.414404  0.276269  0.276269     16.000000
  0.414404  0.414404  0.276269      8.000000
  0.000000  0.000000  0.414404      2.000000
  0.138135  0.000000  0.414404      8.000000
  0.276269  0.000000  0.414404      8.000000
  0.414404  0.000000  0.414404      8.000000
  0.138135  0.138135  0.414404      8.000000
  0.276269  0.138135  0.414404     16.000000
  0.414404  0.138135  0.414404     16.000000
  0.276269  0.276269  0.414404      8.000000
  0.414404  0.276269  0.414404     16.000000
  0.414404  0.414404  0.414404      8.000000
 


--------------------------------------------------------------------------------------------------------




 Dimension of arrays:
   k-points           NKPTS =     40   k-points in BZ     NKDIM =     40   number of bands    NBANDS=     84
   number of dos      NEDOS =    301   number of ions     NIONS =     16
   non local maximal  LDIM  =      6   non local SUM 2l+1 LMDIM =     18
   total plane-waves  NPLWV =  46656
   max r-space proj   IRMAX =   4051   max aug-charges    IRDMAX=  25096
   dimension x,y,z NGX =    36 NGY =   36 NGZ =   36
   dimension x,y,z NGXF=    72 NGYF=   72 NGZF=   72
   support grid    NGXF=    72 NGYF=   72 NGZF=   72
   ions per type =               8   6   2
   NGX,Y,Z   is equivalent  to a cutoff of  10.05, 10.05, 10.05 a.u.
   NGXF,Y,Z  is equivalent  to a cutoff of  20.09, 20.09, 20.09 a.u.

 SYSTEM =  Testrun for NiMnIn                      
 POSCAR =  Ni2MnIn                                 

 Startparameter for this run:
   NWRITE =      2    write-flag & timer
   PREC   = normal    normal or accurate (medium, high low for compatibility)
   ISTART =      0    job   : 0-new  1-cont  2-samecut
   ICHARG =      2    charge: 1-file 2-atom 10-const
   ISPIN  =      2    spin polarized calculation?
   LNONCOLLINEAR =      F non collinear calculations
   LSORBIT =      F    spin-orbit coupling
   INIWAV =      1    electr: 0-lowe 1-rand  2-diag
   LASPH  =      F    aspherical Exc in radial PAW
   METAGGA=      F    non-selfconsistent MetaGGA calc.

 Electronic Relaxation 1
   ENCUT  =  550.0 eV  40.42 Ry    6.36 a.u.  11.39 11.39 11.39*2*pi/ulx,y,z
   ENINI  =  550.0     initial cutoff
   ENAUG  =  544.6 eV  augmentation charge cutoff
   NELM   =     60;   NELMIN=  2; NELMDL= -5     # of ELM steps 
   EDIFF  = 0.1E-04   stopping-criterion for ELM
   LREAL  =      T    real-space projection
   NLSPLINE    = F    spline interpolate recip. space projectors
   LCOMPAT=      F    compatible to vasp.4.4
   GGA_COMPAT  = T    GGA compatible to vasp.4.4-vasp.4.6
   LMAXPAW     = -100 max onsite density
   LMAXMIX     =    2 max onsite mixed and CHGCAR
   VOSKOWN=      0    Vosko Wilk Nusair interpolation
   ROPT   =   -0.00050  -0.00050  -0.00050
 Ionic relaxation
   EDIFFG = -.1E-01   stopping-criterion for IOM
   NSW    =   1000    number of steps for IOM
   NBLOCK =      1;   KBLOCK =   1000    inner block; outer block 
   IBRION =      2    ionic relax: 0-MD 1-quasi-New 2-CG
   NFREE  =      1    steps in history (QN), initial steepest desc. (CG)
   ISIF   =      2    stress and relaxation
   IWAVPR =     11    prediction:  0-non 1-charg 2-wave 3-comb
   ISYM   =      2    0-nonsym 1-usesym 2-fastsym
   LCORR  =      T    Harris-Foulkes like correction to forces

   POTIM  = 0.5000    time-step for ionic-motion
   TEIN   =    0.0    initial temperature
   TEBEG  =    0.0;   TEEND  =   0.0 temperature during run
   SMASS  =  -3.00    Nose mass-parameter (am)
   estimated Nose-frequenzy (Omega)   =  0.10E-29 period in steps =****** mass=  -0.811E-27a.u.
   SCALEE = 1.0000    scale energy and forces
   NPACO  =    256;   APACO  = 16.0  distance and # of slots for P.C.
   PSTRESS=    0.0 pullay stress

  Mass of Ions in am
   POMASS =  58.69 54.94114.82
  Ionic Valenz
   ZVAL   =  10.00  7.00  3.00
  Atomic Wigner-Seitz radii
   RWIGS  =  -1.00 -1.00 -1.00
  virtual crystal weights 
   VCA    =   1.00  1.00  1.00
   NELECT =     128.0000    total number of electrons
   NUPDOWN=      -1.0000    fix difference up-down

 DOS related values:
   EMIN   =  10.00;   EMAX   =-10.00  energy-range for DOS
   EFERMI =   0.00
   ISMEAR =     0;   SIGMA  =   0.02  broadening in eV -4-tet -1-fermi 0-gaus

 Electronic relaxation 2 (details)
   IALGO  =     68    algorithm
   LDIAG  =      T    sub-space diagonalisation (order eigenvalues)
   LSUBROT=      F    optimize rotation matrix (better conditioning)
   TURBO    =      0    0=normal 1=particle mesh
   IRESTART =      0    0=no restart 2=restart with 2 vectors
   NREBOOT  =      0    no. of reboots
   NMIN     =      0    reboot dimension
   EREF     =   0.00    reference energy to select bands
   IMIX   =      4    mixing-type and parameters
     AMIX     =   0.40;   BMIX     =  1.00
     AMIX_MAG =   1.60;   BMIX_MAG =  1.00
     AMIN     =   0.10
     WC   =   100.;   INIMIX=   1;  MIXPRE=   1;  MAXMIX= -45

 Intra band minimization:
   WEIMIN = 0.0010     energy-eigenvalue tresh-hold
   EBREAK =  0.30E-07  absolut break condition
   DEPER  =   0.30     relativ break condition  

   TIME   =   0.40     timestep for ELM

  volume/ion in A,a.u.               =      13.21        89.15
  Fermi-wavevector in a.u.,A,eV,Ry     =   1.385021  2.617311 26.099838  1.918284
  Thomas-Fermi vector in A             =   2.509471

 Write flags
   LWAVE        =      F    write WAVECAR
   LDOWNSAMPLE  =      F    k-point downsampling of WAVECAR
   LCHARG       =      T    write CHGCAR
   LVTOT        =      F    write LOCPOT, total local potential
   LVHAR        =      F    write LOCPOT, Hartree potential only
   LELF         =      F    write electronic localiz. function (ELF)
   LORBIT       =     11    0 simple, 1 ext, 2 COOP (PROOUT), +10 PAW based schemes


 Dipole corrections
   LMONO  =      F    monopole corrections only (constant potential shift)
   LDIPOL =      F    correct potential (dipole corrections)
   IDIPOL =      0    1-x, 2-y, 3-z, 4-all directions 
   EPSILON=  1.0000000 bulk dielectric constant

 Exchange correlation treatment:
   GGA     =    --    GGA type
   LEXCH   =     8    internal setting for exchange type
   VOSKOWN=      0    Vosko Wilk Nusair interpolation
   LHFCALC =     F    Hartree Fock is set to
   LHFONE  =     F    Hartree Fock one center treatment
   AEXX    =    0.0000 exact exchange contribution

 Linear response parameters
   LEPSILON=     F    determine dielectric tensor
   LRPA    =     F    only Hartree local field effects (RPA)
   LNABLA  =     F    use nabla operator in PAW spheres
   LVEL    =     F    velocity operator in full k-point grid
   LINTERFAST=   F  fast interpolation
   KINTER  =     0    interpolate to denser k-point grid
   CSHIFT  =0.1000    complex shift for real part using Kramers Kronig
   OMEGAMAX=  -1.0    maximum frequency
   DEG_THRESHOLD= 0.2000000E-02 threshold for treating states as degnerate
   RTIME   =   -0.100 relaxation time in fs
  (WPLASMAI=    0.000 imaginary part of plasma frequency in eV, 0.658/RTIME)
   DFIELD  = 0.0000000 0.0000000 0.0000000 field for delta impulse in time

 Orbital magnetization related:
   ORBITALMAG=     F  switch on orbital magnetization
   LCHIMAG   =     F  perturbation theory with respect to B field
   DQ        =  0.001000  dq finite difference perturbation B field
   LLRAUG    =     F  two centre corrections for induced B field



--------------------------------------------------------------------------------------------------------


 conjugate gradient relaxation of ions
 charge density and potential will be updated during run
 spin polarized calculation
 RMM-DIIS sequential band-by-band and
  variant of blocked Davidson during initial phase
 perform sub-space diagonalisation
    before iterative eigenvector-optimisation
 modified Broyden-mixing scheme, WC =      100.0
 initial mixing is a Kerker type mixing with AMIX =  0.4000 and BMIX =      1.0000
 Hartree-type preconditioning will be used
 using additional bands           20
 real space projection scheme for non local part
 use partial core corrections
 calculate Harris-corrections to forces   (improved forces if not selfconsistent)
 use gradient corrections 
 use of overlap-Matrix (Vanderbilt PP)
 Gauss-broadening in eV      SIGMA  =   0.02


--------------------------------------------------------------------------------------------------------


  energy-cutoff  :      550.00
  volume of cell :      211.38
      direct lattice vectors                 reciprocal lattice vectors
     5.956919078  0.000000000  0.000000000     0.167872014  0.000000000  0.000000000
     0.000000000  5.956919078  0.000000000     0.000000000  0.167872014  0.000000000
     0.000000000  0.000000000  5.956919078     0.000000000  0.000000000  0.167872014

  length of vectors
     5.956919078  5.956919078  5.956919078     0.167872014  0.167872014  0.167872014



 k-points in units of 2pi/SCALE and weight: k-points                                
   0.00000000  0.00000000  0.00000000       0.003
   0.13813469  0.00000000  0.00000000       0.012
   0.27626937  0.00000000  0.00000000       0.012
   0.41440406  0.00000000  0.00000000       0.012
   0.13813469  0.13813469  0.00000000       0.012
   0.27626937  0.13813469  0.00000000       0.023
   0.41440406  0.13813469  0.00000000       0.023
   0.27626937  0.27626937  0.00000000       0.012
   0.41440406  0.27626937  0.00000000       0.023
   0.41440406  0.41440406  0.00000000       0.012
   0.00000000  0.00000000  0.13813469       0.006
   0.13813469  0.00000000  0.13813469       0.023
   0.27626937  0.00000000  0.13813469       0.023
   0.41440406  0.00000000  0.13813469       0.023
   0.13813469  0.13813469  0.13813469       0.023
   0.27626937  0.13813469  0.13813469       0.047
   0.41440406  0.13813469  0.13813469       0.047
   0.27626937  0.27626937  0.13813469       0.023
   0.41440406  0.27626937  0.13813469       0.047
   0.41440406  0.41440406  0.13813469       0.023
   0.00000000  0.00000000  0.27626937       0.006
   0.13813469  0.00000000  0.27626937       0.023
   0.27626937  0.00000000  0.27626937       0.023
   0.41440406  0.00000000  0.27626937       0.023
   0.13813469  0.13813469  0.27626937       0.023
   0.27626937  0.13813469  0.27626937       0.047
   0.41440406  0.13813469  0.27626937       0.047
   0.27626937  0.27626937  0.27626937       0.023
   0.41440406  0.27626937  0.27626937       0.047
   0.41440406  0.41440406  0.27626937       0.023
   0.00000000  0.00000000  0.41440406       0.006
   0.13813469  0.00000000  0.41440406       0.023
   0.27626937  0.00000000  0.41440406       0.023
   0.41440406  0.00000000  0.41440406       0.023
   0.13813469  0.13813469  0.41440406       0.023
   0.27626937  0.13813469  0.41440406       0.047
   0.41440406  0.13813469  0.41440406       0.047
   0.27626937  0.27626937  0.41440406       0.023
   0.41440406  0.27626937  0.41440406       0.047
   0.41440406  0.41440406  0.41440406       0.023

 k-points in reciprocal lattice and weights: k-points                                
   0.00000000  0.00000000  0.00000000       0.003
   0.14285714  0.00000000  0.00000000       0.012
   0.28571429  0.00000000  0.00000000       0.012
   0.42857143  0.00000000  0.00000000       0.012
   0.14285714  0.14285714  0.00000000       0.012
   0.28571429  0.14285714  0.00000000       0.023
   0.42857143  0.14285714  0.00000000       0.023
   0.28571429  0.28571429  0.00000000       0.012
   0.42857143  0.28571429  0.00000000       0.023
   0.42857143  0.42857143  0.00000000       0.012
   0.00000000  0.00000000  0.14285714       0.006
   0.14285714  0.00000000  0.14285714       0.023
   0.28571429  0.00000000  0.14285714       0.023
   0.42857143  0.00000000  0.14285714       0.023
   0.14285714  0.14285714  0.14285714       0.023
   0.28571429  0.14285714  0.14285714       0.047
   0.42857143  0.14285714  0.14285714       0.047
   0.28571429  0.28571429  0.14285714       0.023
   0.42857143  0.28571429  0.14285714       0.047
   0.42857143  0.42857143  0.14285714       0.023
   0.00000000  0.00000000  0.28571429       0.006
   0.14285714  0.00000000  0.28571429       0.023
   0.28571429  0.00000000  0.28571429       0.023
   0.42857143  0.00000000  0.28571429       0.023
   0.14285714  0.14285714  0.28571429       0.023
   0.28571429  0.14285714  0.28571429       0.047
   0.42857143  0.14285714  0.28571429       0.047
   0.28571429  0.28571429  0.28571429       0.023
   0.42857143  0.28571429  0.28571429       0.047
   0.42857143  0.42857143  0.28571429       0.023
   0.00000000  0.00000000  0.42857143       0.006
   0.14285714  0.00000000  0.42857143       0.023
   0.28571429  0.00000000  0.42857143       0.023
   0.42857143  0.00000000  0.42857143       0.023
   0.14285714  0.14285714  0.42857143       0.023
   0.28571429  0.14285714  0.42857143       0.047
   0.42857143  0.14285714  0.42857143       0.047
   0.28571429  0.28571429  0.42857143       0.023
   0.42857143  0.28571429  0.42857143       0.047
   0.42857143  0.42857143  0.42857143       0.023

 position of ions in fractional coordinates (direct lattice) 
   0.24575167  0.25424833  0.26897394
   0.75424833  0.25424833  0.26897394
   0.24575167  0.74575167  0.26897394
   0.75424833  0.74575167  0.26897394
   0.24575167  0.25424833  0.73102606
   0.75424833  0.25424833  0.73102606
   0.24575167  0.74575167  0.73102606
   0.75424833  0.74575167  0.73102606
   0.50000000  0.00000000  0.00000000
   0.00000000  0.50000000  0.00000000
   0.00000000  0.00000000  0.50000000
   0.50000000  0.00000000  0.50000000
   0.50000000  0.50000000  0.50000000
   0.00000000  0.50000000  0.50000000
   0.00000000  0.00000000  0.00000000
   0.50000000  0.50000000  0.00000000

 position of ions in cartesian coordinates  (Angst):
   1.46392279  1.51453675  1.60225597
   4.49299629  1.51453675  1.60225597
   1.46392279  4.44238233  1.60225597
   4.49299629  4.44238233  1.60225597
   1.46392279  1.51453675  4.35466311
   4.49299629  1.51453675  4.35466311
   1.46392279  4.44238233  4.35466311
   4.49299629  4.44238233  4.35466311
   2.97845954  0.00000000  0.00000000
   0.00000000  2.97845954  0.00000000
   0.00000000  0.00000000  2.97845954
   2.97845954  0.00000000  2.97845954
   2.97845954  2.97845954  2.97845954
   0.00000000  2.97845954  2.97845954
   0.00000000  0.00000000  0.00000000
   2.97845954  2.97845954  0.00000000



--------------------------------------------------------------------------------------------------------


 k-point  1 :   0.0000 0.0000 0.0000  plane waves:    6187
 k-point  2 :   0.1429 0.0000 0.0000  plane waves:    6195
 k-point  3 :   0.2857 0.0000 0.0000  plane waves:    6187
 k-point  4 :   0.4286 0.0000 0.0000  plane waves:    6190
 k-point  5 :   0.1429 0.1429 0.0000  plane waves:    6194
 k-point  6 :   0.2857 0.1429 0.0000  plane waves:    6211
 k-point  7 :   0.4286 0.1429 0.0000  plane waves:    6199
 k-point  8 :   0.2857 0.2857 0.0000  plane waves:    6202
 k-point  9 :   0.4286 0.2857 0.0000  plane waves:    6183
 k-point 10 :   0.4286 0.4286 0.0000  plane waves:    6192
 k-point 11 :   0.0000 0.0000 0.1429  plane waves:    6195
 k-point 12 :   0.1429 0.0000 0.1429  plane waves:    6194
 k-point 13 :   0.2857 0.0000 0.1429  plane waves:    6211
 k-point 14 :   0.4286 0.0000 0.1429  plane waves:    6199
 k-point 15 :   0.1429 0.1429 0.1429  plane waves:    6193
 k-point 16 :   0.2857 0.1429 0.1429  plane waves:    6196
 k-point 17 :   0.4286 0.1429 0.1429  plane waves:    6198
 k-point 18 :   0.2857 0.2857 0.1429  plane waves:    6179
 k-point 19 :   0.4286 0.2857 0.1429  plane waves:    6194
 k-point 20 :   0.4286 0.4286 0.1429  plane waves:    6201
 k-point 21 :   0.0000 0.0000 0.2857  plane waves:    6187
 k-point 22 :   0.1429 0.0000 0.2857  plane waves:    6211
 k-point 23 :   0.2857 0.0000 0.2857  plane waves:    6202
 k-point 24 :   0.4286 0.0000 0.2857  plane waves:    6183
 k-point 25 :   0.1429 0.1429 0.2857  plane waves:    6196
 k-point 26 :   0.2857 0.1429 0.2857  plane waves:    6179
 k-point 27 :   0.4286 0.1429 0.2857  plane waves:    6194
 k-point 28 :   0.2857 0.2857 0.2857  plane waves:    6202
 k-point 29 :   0.4286 0.2857 0.2857  plane waves:    6196
 k-point 30 :   0.4286 0.4286 0.2857  plane waves:    6178
 k-point 31 :   0.0000 0.0000 0.4286  plane waves:    6190
 k-point 32 :   0.1429 0.0000 0.4286  plane waves:    6199
 k-point 33 :   0.2857 0.0000 0.4286  plane waves:    6183
 k-point 34 :   0.4286 0.0000 0.4286  plane waves:    6192
 k-point 35 :   0.1429 0.1429 0.4286  plane waves:    6198
 k-point 36 :   0.2857 0.1429 0.4286  plane waves:    6194
 k-point 37 :   0.4286 0.1429 0.4286  plane waves:    6201
 k-point 38 :   0.2857 0.2857 0.4286  plane waves:    6196
 k-point 39 :   0.4286 0.2857 0.4286  plane waves:    6178
 k-point 40 :   0.4286 0.4286 0.4286  plane waves:    6143

 maximum and minimum number of plane-waves per node :      6211     6143

 maximum number of plane-waves:      6211
 maximum index in each direction: 
   IXMAX=   11   IYMAX=   11   IZMAX=   11
   IXMIN=  -11   IYMIN=  -11   IZMIN=  -11


 serial   3D FFT for wavefunctions
 parallel 3D FFT for charge:
    minimum data exchange during FFTs selected (reduces bandwidth)


 total amount of memory used by VASP MPI-rank0   103427. kBytes
=======================================================================

   base      :      30000. kBytes
   nonlr-proj:       6813. kBytes
   fftplans  :       1269. kBytes
   grid      :       6573. kBytes
   one-center:        497. kBytes
   wavefun   :      58275. kBytes

     INWAV:  cpu time    0.0000: real time    0.0000
 Broyden mixing: mesh for mixing (old mesh)
   NGX = 23   NGY = 23   NGZ = 23
  (NGX  = 72   NGY  = 72   NGZ  = 72)
  gives a total of  12167 points

 initial charge density was supplied:
 charge density of overlapping atoms calculated
 number of electron     128.0000000 magnetization      16.8000000
 keeping initial charge density in first step


--------------------------------------------------------------------------------------------------------


 Maximum index for non-local projection operator         3887
 Maximum index for augmentation-charges         2111 (set IRDMAX)


--------------------------------------------------------------------------------------------------------


 First call to EWALD:  gamma=   0.298
 Maximum number of real-space cells 3x 3x 3
 Maximum number of reciprocal cells 3x 3x 3

    FEWALD:  cpu time    0.0021: real time    0.0021


--------------------------------------- Iteration      1(   1)  ---------------------------------------


    POTLOK:  cpu time    0.0982: real time    0.1049
    SETDIJ:  cpu time    0.0355: real time    0.0355
     EDDAV:  cpu time   23.3320: real time   23.3758
       DOS:  cpu time    0.0036: real time    0.0036
    --------------------------------------------
      LOOP:  cpu time   23.4693: real time   23.5198

 eigenvalue-minimisations  : 13440
 total energy-change (2. order) : 0.1070682E+04  (-0.5445105E+04)
 number of electron     128.0000000 magnetization      16.8000000
 augmentation part      128.0000000 magnetization      16.8000000

 Free energy of the ion-electron system (eV)
  ---------------------------------------------------
  alpha Z        PSCENC =       532.33161010
  Ewald energy   TEWEN  =     -9280.94548480
  -Hartree energ DENC   =     -3147.97229624
  -exchange      EXHF   =         0.00000000
  -V(xc)+E(xc)   XCENC  =        78.43158365
  PAW double counting   =     10320.96726947   -10647.99417394
  entropy T*S    EENTRO =        -0.00107434
  eigenvalues    EBANDS =      1986.40212964
  atomic energy  EATOM  =     11229.46195210
  Solvation  Ediel_sol  =         0.00000000
  ---------------------------------------------------
  free energy    TOTEN  =      1070.68151565 eV

  energy without entropy =     1070.68258998  energy(sigma->0) =     1070.68205281


--------------------------------------------------------------------------------------------------------




--------------------------------------- Iteration      1(   2)  ---------------------------------------


     EDDAV:  cpu time   24.2514: real time   24.2770
       DOS:  cpu time    0.0037: real time    0.0037
    --------------------------------------------
      LOOP:  cpu time   24.2551: real time   24.2807

 eigenvalue-minimisations  : 13440
 total energy-change (2. order) :-0.1068881E+04  (-0.1034991E+04)
 number of electron     128.0000000 magnetization      16.8000000
 augmentation part      128.0000000 magnetization      16.8000000

 Free energy of the ion-electron system (eV)
  ---------------------------------------------------
  alpha Z        PSCENC =       532.33161010
  Ewald energy   TEWEN  =     -9280.94548480
  -Hartree energ DENC   =     -3147.97229624
  -exchange      EXHF   =         0.00000000
  -V(xc)+E(xc)   XCENC  =        78.43158365
  PAW double counting   =     10320.96726947   -10647.99417394
  entropy T*S    EENTRO =        -0.00289037
  eigenvalues    EBANDS =       917.52293422
  atomic energy  EATOM  =     11229.46195210
  Solvation  Ediel_sol  =         0.00000000
  ---------------------------------------------------
  free energy    TOTEN  =         1.80050419 eV

  energy without entropy =        1.80339456  energy(sigma->0) =        1.80194938


--------------------------------------------------------------------------------------------------------




--------------------------------------- Iteration      1(   3)  ---------------------------------------


     EDDAV:  cpu time   25.6756: real time   25.6967
       DOS:  cpu time    0.0037: real time    0.0037
    --------------------------------------------
      LOOP:  cpu time   25.6793: real time   25.7004

 eigenvalue-minimisations  : 15108
 total energy-change (2. order) :-0.1115029E+03  (-0.9914322E+02)
 number of electron     128.0000000 magnetization      16.8000000
 augmentation part      128.0000000 magnetization      16.8000000

 Free energy of the ion-electron system (eV)
  ---------------------------------------------------
  alpha Z        PSCENC =       532.33161010
  Ewald energy   TEWEN  =     -9280.94548480
  -Hartree energ DENC   =     -3147.97229624
  -exchange      EXHF   =         0.00000000
  -V(xc)+E(xc)   XCENC  =        78.43158365
  PAW double counting   =     10320.96726947   -10647.99417394
  entropy T*S    EENTRO =        -0.00283435
  eigenvalues    EBANDS =       806.01995146
  atomic energy  EATOM  =     11229.46195210
  Solvation  Ediel_sol  =         0.00000000
  ---------------------------------------------------
  free energy    TOTEN  =      -109.70242255 eV

  energy without entropy =     -109.69958820  energy(sigma->0) =     -109.70100537


--------------------------------------------------------------------------------------------------------




--------------------------------------- Iteration      1(   4)  ---------------------------------------


     EDDAV:  cpu time   32.1468: real time   32.1754
       DOS:  cpu time    0.0037: real time    0.0037
    --------------------------------------------
      LOOP:  cpu time   32.1505: real time   32.1792

 eigenvalue-minimisations  : 19824
 total energy-change (2. order) :-0.7020420E+01  (-0.6512705E+01)
 number of electron     128.0000000 magnetization      16.8000000
 augmentation part      128.0000000 magnetization      16.8000000

 Free energy of the ion-electron system (eV)
  ---------------------------------------------------
  alpha Z        PSCENC =       532.33161010
  Ewald energy   TEWEN  =     -9280.94548480
  -Hartree energ DENC   =     -3147.97229624
  -exchange      EXHF   =         0.00000000
  -V(xc)+E(xc)   XCENC  =        78.43158365
  PAW double counting   =     10320.96726947   -10647.99417394
  entropy T*S    EENTRO =        -0.00323980
  eigenvalues    EBANDS =       798.99993662
  atomic energy  EATOM  =     11229.46195210
  Solvation  Ediel_sol  =         0.00000000
  ---------------------------------------------------
  free energy    TOTEN  =      -116.72284284 eV

  energy without entropy =     -116.71960303  energy(sigma->0) =     -116.72122293


--------------------------------------------------------------------------------------------------------




--------------------------------------- Iteration      1(   5)  ---------------------------------------


     EDDAV:  cpu time   31.4781: real time   31.5101
       DOS:  cpu time    0.0037: real time    0.0037
    CHARGE:  cpu time    0.6748: real time    0.6758
    MIXING:  cpu time    0.0016: real time    0.0016
    --------------------------------------------
      LOOP:  cpu time   32.1582: real time   32.1912

 eigenvalue-minimisations  : 19392
 total energy-change (2. order) :-0.2349693E+00  (-0.2336630E+00)
 number of electron     128.0000304 magnetization      14.5169973
 augmentation part       60.5972016 magnetization       9.2945021

 Broyden mixing:
  rms(total) = 0.34737E+01    rms(broyden)= 0.34736E+01
  rms(prec ) = 0.53422E+01
  weight for this iteration     100.00

 Free energy of the ion-electron system (eV)
  ---------------------------------------------------
  alpha Z        PSCENC =       532.33161010
  Ewald energy   TEWEN  =     -9280.94548480
  -Hartree energ DENC   =     -3147.97229624
  -exchange      EXHF   =         0.00000000
  -V(xc)+E(xc)   XCENC  =        78.43158365
  PAW double counting   =     10320.96726947   -10647.99417394
  entropy T*S    EENTRO =        -0.00324502
  eigenvalues    EBANDS =       798.76497252
  atomic energy  EATOM  =     11229.46195210
  Solvation  Ediel_sol  =         0.00000000
  ---------------------------------------------------
  free energy    TOTEN  =      -116.95781216 eV

  energy without entropy =     -116.95456714  energy(sigma->0) =     -116.95618965


--------------------------------------------------------------------------------------------------------




--------------------------------------- Iteration      1(   6)  ---------------------------------------


    POTLOK:  cpu time    0.0989: real time    0.0996
    SETDIJ:  cpu time    0.0364: real time    0.0365
    EDDIAG:  cpu time    3.2930: real time    3.2979
  RMM-DIIS:  cpu time   10.5744: real time   10.5902
    ORTHCH:  cpu time    0.6357: real time    0.6365
       DOS:  cpu time    0.0039: real time    0.0041
    CHARGE:  cpu time    0.6969: real time    0.6979
    MIXING:  cpu time    0.0016: real time    0.0016
    --------------------------------------------
      LOOP:  cpu time   15.3408: real time   15.3643

 eigenvalue-minimisations  : 13440
 total energy-change (2. order) : 0.6583033E+01  (-0.1690675E+02)
 number of electron     128.0000340 magnetization      14.7141256
 augmentation part       69.6804986 magnetization      11.0947727

 Broyden mixing:
  rms(total) = 0.47093E+01    rms(broyden)= 0.47092E+01
  rms(prec ) = 0.64203E+01
  weight for this iteration     100.00

 eigenvalues of (default mixing * dielectric matrix)
  average eigenvalue GAMMA=   0.2227
  0.2227

 Free energy of the ion-electron system (eV)
  ---------------------------------------------------
  alpha Z        PSCENC =       532.33161010
  Ewald energy   TEWEN  =     -9280.94548480
  -Hartree energ DENC   =     -2912.46664295
  -exchange      EXHF   =         0.00000000
  -V(xc)+E(xc)   XCENC  =        66.28606958
  PAW double counting   =     11126.85629037   -11419.71197875
  entropy T*S    EENTRO =        -0.00802707
  eigenvalues    EBANDS =       547.82143252
  atomic energy  EATOM  =     11229.46195210
  Solvation  Ediel_sol  =         0.00000000
  ---------------------------------------------------
  free energy    TOTEN  =      -110.37477891 eV

  energy without entropy =     -110.36675183  energy(sigma->0) =     -110.37076537


--------------------------------------------------------------------------------------------------------




--------------------------------------- Iteration      1(   7)  ---------------------------------------


    POTLOK:  cpu time    0.0979: real time    0.0982
    SETDIJ:  cpu time    0.0362: real time    0.0363
    EDDIAG:  cpu time    3.2923: real time    3.2971
  RMM-DIIS:  cpu time   10.5486: real time   10.5660
    ORTHCH:  cpu time    0.6398: real time    0.6407
       DOS:  cpu time    0.0038: real time    0.0039
    CHARGE:  cpu time    0.6740: real time    0.6748
    MIXING:  cpu time    0.0016: real time    0.0016
    --------------------------------------------
      LOOP:  cpu time   15.2943: real time   15.3187

 eigenvalue-minimisations  : 13467
 total energy-change (2. order) :-0.1301422E+01  (-0.2891466E+01)
 number of electron     128.0000337 magnetization      14.0835588
 augmentation part       70.1787785 magnetization      10.4286326

 Broyden mixing:
  rms(total) = 0.36977E+01    rms(broyden)= 0.36976E+01
  rms(prec ) = 0.66385E+01
  weight for this iteration     100.00

 eigenvalues of (default mixing * dielectric matrix)
  average eigenvalue GAMMA=   0.4117
  0.4117  0.4117

 Free energy of the ion-electron system (eV)
  ---------------------------------------------------
  alpha Z        PSCENC =       532.33161010
  Ewald energy   TEWEN  =     -9280.94548480
  -Hartree energ DENC   =     -2900.92825476
  -exchange      EXHF   =         0.00000000
  -V(xc)+E(xc)   XCENC  =        66.94451980
  PAW double counting   =     11405.39952514   -11703.97229320
  entropy T*S    EENTRO =        -0.00356125
  eigenvalues    EBANDS =       540.03578617
  atomic energy  EATOM  =     11229.46195210
  Solvation  Ediel_sol  =         0.00000000
  ---------------------------------------------------
  free energy    TOTEN  =      -111.67620070 eV

  energy without entropy =     -111.67263945  energy(sigma->0) =     -111.67442007


--------------------------------------------------------------------------------------------------------




--------------------------------------- Iteration      1(   8)  ---------------------------------------


    POTLOK:  cpu time    0.0978: real time    0.0980
    SETDIJ:  cpu time    0.0362: real time    0.0363
    EDDIAG:  cpu time    3.3144: real time    3.3192
  RMM-DIIS:  cpu time   10.6593: real time   10.6764
    ORTHCH:  cpu time    0.6378: real time    0.6386
       DOS:  cpu time    0.0038: real time    0.0040
    CHARGE:  cpu time    0.6787: real time    0.6817
    MIXING:  cpu time    0.0018: real time    0.0018
    --------------------------------------------
      LOOP:  cpu time   15.4298: real time   15.4560

 eigenvalue-minimisations  : 13440
 total energy-change (2. order) : 0.5512721E+01  (-0.2393025E+01)
 number of electron     128.0000340 magnetization      13.6687399
 augmentation part       68.3539086 magnetization      10.4176278

 Broyden mixing:
  rms(total) = 0.27642E+01    rms(broyden)= 0.27640E+01
  rms(prec ) = 0.52954E+01
  weight for this iteration     100.00

 eigenvalues of (default mixing * dielectric matrix)
  average eigenvalue GAMMA=   0.4139
  0.5424  0.5424  0.1569

 Free energy of the ion-electron system (eV)
  ---------------------------------------------------
  alpha Z        PSCENC =       532.33161010
  Ewald energy   TEWEN  =     -9280.94548480
  -Hartree energ DENC   =     -2954.42801325
  -exchange      EXHF   =         0.00000000
  -V(xc)+E(xc)   XCENC  =        70.20497164
  PAW double counting   =     11769.80613943   -12092.04578333
  entropy T*S    EENTRO =        -0.00273055
  eigenvalues    EBANDS =       619.45385917
  atomic energy  EATOM  =     11229.46195210
  Solvation  Ediel_sol  =         0.00000000
  ---------------------------------------------------
  free energy    TOTEN  =      -106.16347949 eV

  energy without entropy =     -106.16074894  energy(sigma->0) =     -106.16211422


--------------------------------------------------------------------------------------------------------




--------------------------------------- Iteration      1(   9)  ---------------------------------------


    POTLOK:  cpu time    0.0982: real time    0.0985
    SETDIJ:  cpu time    0.0363: real time    0.0363
    EDDIAG:  cpu time    3.3284: real time    3.3342
  RMM-DIIS:  cpu time   10.6612: real time   10.6784
    ORTHCH:  cpu time    0.6344: real time    0.6353
       DOS:  cpu time    0.0038: real time    0.0040
    CHARGE:  cpu time    0.7080: real time    0.7088
    MIXING:  cpu time    0.0018: real time    0.0018
    --------------------------------------------
      LOOP:  cpu time   15.4721: real time   15.4974

 eigenvalue-minimisations  : 13588
 total energy-change (2. order) : 0.1750777E+01  (-0.6006348E+00)
 number of electron     128.0000328 magnetization      14.1687152
 augmentation part       66.9845142 magnetization      10.0590972

 Broyden mixing:
  rms(total) = 0.19533E+01    rms(broyden)= 0.19533E+01
  rms(prec ) = 0.33737E+01
  weight for this iteration     100.00

 eigenvalues of (default mixing * dielectric matrix)
  average eigenvalue GAMMA=   0.4548
  0.8863  0.5334  0.2560  0.1434

 Free energy of the ion-electron system (eV)
  ---------------------------------------------------
  alpha Z        PSCENC =       532.33161010
  Ewald energy   TEWEN  =     -9280.94548480
  -Hartree energ DENC   =     -2966.16855047
  -exchange      EXHF   =         0.00000000
  -V(xc)+E(xc)   XCENC  =        71.09489091
  PAW double counting   =     11962.20797652   -12292.56049164
  entropy T*S    EENTRO =        -0.00400784
  eigenvalues    EBANDS =       640.16940259
  atomic energy  EATOM  =     11229.46195210
  Solvation  Ediel_sol  =         0.00000000
  ---------------------------------------------------
  free energy    TOTEN  =      -104.41270252 eV

  energy without entropy =     -104.40869468  energy(sigma->0) =     -104.41069860


--------------------------------------------------------------------------------------------------------




--------------------------------------- Iteration      1(  10)  ---------------------------------------


    POTLOK:  cpu time    0.0981: real time    0.1021
    SETDIJ:  cpu time    0.0364: real time    0.0365
    EDDIAG:  cpu time    3.3404: real time    3.3434
  RMM-DIIS:  cpu time   10.6064: real time   10.6149
    ORTHCH:  cpu time    0.6374: real time    0.6379
       DOS:  cpu time    0.0037: real time    0.0037
    CHARGE:  cpu time    0.6885: real time    0.6890
    MIXING:  cpu time    0.0020: real time    0.0020
    --------------------------------------------
      LOOP:  cpu time   15.4129: real time   15.4295

 eigenvalue-minimisations  : 13451
 total energy-change (2. order) : 0.1509885E+01  (-0.1926518E+00)
 number of electron     128.0000330 magnetization      14.8460449
 augmentation part       67.4298576 magnetization      10.6687804

 Broyden mixing:
  rms(total) = 0.10957E+01    rms(broyden)= 0.10956E+01
  rms(prec ) = 0.13278E+01
  weight for this iteration     100.00

 eigenvalues of (default mixing * dielectric matrix)
  average eigenvalue GAMMA=   0.4519
  0.9908  0.4606  0.4606  0.2085  0.1390

 Free energy of the ion-electron system (eV)
  ---------------------------------------------------
  alpha Z        PSCENC =       532.33161010
  Ewald energy   TEWEN  =     -9280.94548480
  -Hartree energ DENC   =     -2956.29572366
  -exchange      EXHF   =         0.00000000
  -V(xc)+E(xc)   XCENC  =        71.39021743
  PAW double counting   =     12213.81188216   -12547.40020347
  entropy T*S    EENTRO =        -0.00381932
  eigenvalues    EBANDS =       634.74675154
  atomic energy  EATOM  =     11229.46195210
  Solvation  Ediel_sol  =         0.00000000
  ---------------------------------------------------
  free energy    TOTEN  =      -102.90281791 eV

  energy without entropy =     -102.89899859  energy(sigma->0) =     -102.90090825


--------------------------------------------------------------------------------------------------------




--------------------------------------- Iteration      1(  11)  ---------------------------------------


    POTLOK:  cpu time    0.0981: real time    0.0982
    SETDIJ:  cpu time    0.0363: real time    0.0363
    EDDIAG:  cpu time    3.3529: real time    3.3558
  RMM-DIIS:  cpu time   10.6054: real time   10.6139
    ORTHCH:  cpu time    0.6378: real time    0.6383
       DOS:  cpu time    0.0038: real time    0.0038
    CHARGE:  cpu time    0.6894: real time    0.6899
    MIXING:  cpu time    0.0020: real time    0.0020
    --------------------------------------------
      LOOP:  cpu time   15.4256: real time   15.4381

 eigenvalue-minimisations  : 13496
 total energy-change (2. order) :-0.2603925E+00  (-0.4432389E-01)
 number of electron     128.0000330 magnetization      15.3104183
 augmentation part       67.6452267 magnetization      11.1589275

 Broyden mixing:
  rms(total) = 0.76705E+00    rms(broyden)= 0.76705E+00
  rms(prec ) = 0.96083E+00
  weight for this iteration     100.00

 eigenvalues of (default mixing * dielectric matrix)
  average eigenvalue GAMMA=   0.4733
  0.9071  0.5884  0.5884  0.4261  0.1957  0.1339

 Free energy of the ion-electron system (eV)
  ---------------------------------------------------
  alpha Z        PSCENC =       532.33161010
  Ewald energy   TEWEN  =     -9280.94548480
  -Hartree energ DENC   =     -2950.38324644
  -exchange      EXHF   =         0.00000000
  -V(xc)+E(xc)   XCENC  =        72.44415930
  PAW double counting   =     12373.84150017   -12709.91109581
  entropy T*S    EENTRO =        -0.00240793
  eigenvalues    EBANDS =       629.99980290
  atomic energy  EATOM  =     11229.46195210
  Solvation  Ediel_sol  =         0.00000000
  ---------------------------------------------------
  free energy    TOTEN  =      -103.16321041 eV

  energy without entropy =     -103.16080248  energy(sigma->0) =     -103.16200644


--------------------------------------------------------------------------------------------------------




--------------------------------------- Iteration      1(  12)  ---------------------------------------


    POTLOK:  cpu time    0.0983: real time    0.0984
    SETDIJ:  cpu time    0.0361: real time    0.0362
    EDDIAG:  cpu time    3.3483: real time    3.3512
  RMM-DIIS:  cpu time   10.6866: real time   10.6952
    ORTHCH:  cpu time    0.6377: real time    0.6381
       DOS:  cpu time    0.0038: real time    0.0038
    CHARGE:  cpu time    0.7009: real time    0.7013
    MIXING:  cpu time    0.0022: real time    0.0022
    --------------------------------------------
      LOOP:  cpu time   15.5138: real time   15.5264

 eigenvalue-minimisations  : 13464
 total energy-change (2. order) :-0.1404954E+00  (-0.2895956E-01)
 number of electron     128.0000328 magnetization      17.1101909
 augmentation part       67.4281690 magnetization      12.8442749

 Broyden mixing:
  rms(total) = 0.62342E+00    rms(broyden)= 0.62340E+00
  rms(prec ) = 0.77376E+00
  weight for this iteration     100.00

 eigenvalues of (default mixing * dielectric matrix)
  average eigenvalue GAMMA=   0.6496
  1.7822  0.8860  0.6520  0.6520  0.1346  0.2144  0.2260

 Free energy of the ion-electron system (eV)
  ---------------------------------------------------
  alpha Z        PSCENC =       532.33161010
  Ewald energy   TEWEN  =     -9280.94548480
  -Hartree energ DENC   =     -2952.29625259
  -exchange      EXHF   =         0.00000000
  -V(xc)+E(xc)   XCENC  =        73.46989786
  PAW double counting   =     12466.58095681   -12805.21032754
  entropy T*S    EENTRO =        -0.00322660
  eigenvalues    EBANDS =       633.30716884
  atomic energy  EATOM  =     11229.46195210
  Solvation  Ediel_sol  =         0.00000000
  ---------------------------------------------------
  free energy    TOTEN  =      -103.30370583 eV

  energy without entropy =     -103.30047922  energy(sigma->0) =     -103.30209253


--------------------------------------------------------------------------------------------------------




--------------------------------------- Iteration      1(  13)  ---------------------------------------


    POTLOK:  cpu time    0.0999: real time    0.1000
    SETDIJ:  cpu time    0.0363: real time    0.0363
    EDDIAG:  cpu time    3.3624: real time    3.3655
  RMM-DIIS:  cpu time   11.2588: real time   11.2676
    ORTHCH:  cpu time    0.6373: real time    0.6378
       DOS:  cpu time    0.0036: real time    0.0037
    CHARGE:  cpu time    0.7127: real time    0.7132
    MIXING:  cpu time    0.0023: real time    0.0023
    --------------------------------------------
      LOOP:  cpu time   16.1134: real time   16.1264

 eigenvalue-minimisations  : 14104
 total energy-change (2. order) :-0.1931035E+00  (-0.4301440E-01)
 number of electron     128.0000329 magnetization      17.2343207
 augmentation part       67.6739393 magnetization      12.9334628

 Broyden mixing:
  rms(total) = 0.29579E+00    rms(broyden)= 0.29578E+00
  rms(prec ) = 0.46104E+00
  weight for this iteration     100.00

 eigenvalues of (default mixing * dielectric matrix)
  average eigenvalue GAMMA=   0.6595
  2.0420  0.8191  0.8191  0.5148  0.5148  0.1346  0.2125  0.2187

 Free energy of the ion-electron system (eV)
  ---------------------------------------------------
  alpha Z        PSCENC =       532.33161010
  Ewald energy   TEWEN  =     -9280.94548480
  -Hartree energ DENC   =     -2944.30904981
  -exchange      EXHF   =         0.00000000
  -V(xc)+E(xc)   XCENC  =        75.80460320
  PAW double counting   =     12801.57929001   -13145.47255656
  entropy T*S    EENTRO =        -0.00229657
  eigenvalues    EBANDS =       628.05512300
  atomic energy  EATOM  =     11229.46195210
  Solvation  Ediel_sol  =         0.00000000
  ---------------------------------------------------
  free energy    TOTEN  =      -103.49680932 eV

  energy without entropy =     -103.49451276  energy(sigma->0) =     -103.49566104


--------------------------------------------------------------------------------------------------------




--------------------------------------- Iteration      1(  14)  ---------------------------------------


    POTLOK:  cpu time    0.1155: real time    0.1162
    SETDIJ:  cpu time    0.0381: real time    0.0381
    EDDIAG:  cpu time    3.3960: real time    3.4001
  RMM-DIIS:  cpu time   11.1360: real time   11.1479
    ORTHCH:  cpu time    0.6374: real time    0.6380
       DOS:  cpu time    0.0039: real time    0.0041
    CHARGE:  cpu time    0.7126: real time    0.7133
    MIXING:  cpu time    0.0025: real time    0.0025
    --------------------------------------------
      LOOP:  cpu time   16.0421: real time   16.0603

 eigenvalue-minimisations  : 14091
 total energy-change (2. order) : 0.1278288E-01  (-0.1086983E-01)
 number of electron     128.0000329 magnetization      17.2065788
 augmentation part       67.7518952 magnetization      12.8111202

 Broyden mixing:
  rms(total) = 0.18364E+00    rms(broyden)= 0.18364E+00
  rms(prec ) = 0.29750E+00
  weight for this iteration     100.00

 eigenvalues of (default mixing * dielectric matrix)
  average eigenvalue GAMMA=   0.6567
  2.0260  0.9335  0.9335  0.5463  0.5463  0.3540  0.1346  0.2090  0.2272

 Free energy of the ion-electron system (eV)
  ---------------------------------------------------
  alpha Z        PSCENC =       532.33161010
  Ewald energy   TEWEN  =     -9280.94548480
  -Hartree energ DENC   =     -2942.46021381
  -exchange      EXHF   =         0.00000000
  -V(xc)+E(xc)   XCENC  =        75.64930617
  PAW double counting   =     12850.69748086   -13194.94240900
  entropy T*S    EENTRO =        -0.00270550
  eigenvalues    EBANDS =       626.72643744
  atomic energy  EATOM  =     11229.46195210
  Solvation  Ediel_sol  =         0.00000000
  ---------------------------------------------------
  free energy    TOTEN  =      -103.48402645 eV

  energy without entropy =     -103.48132095  energy(sigma->0) =     -103.48267370


--------------------------------------------------------------------------------------------------------




--------------------------------------- Iteration      1(  15)  ---------------------------------------


    POTLOK:  cpu time    0.0985: real time    0.0987
    SETDIJ:  cpu time    0.0362: real time    0.0363
    EDDIAG:  cpu time    3.3865: real time    3.3902
  RMM-DIIS:  cpu time   10.9044: real time   10.9159
    ORTHCH:  cpu time    0.6364: real time    0.6372
       DOS:  cpu time    0.0038: real time    0.0040
    CHARGE:  cpu time    0.7139: real time    0.7144
    MIXING:  cpu time    0.0027: real time    0.0027
    --------------------------------------------
      LOOP:  cpu time   15.7825: real time   15.7994

 eigenvalue-minimisations  : 13722
 total energy-change (2. order) : 0.1279599E-01  (-0.2993948E-02)
 number of electron     128.0000329 magnetization      17.2875892
 augmentation part       67.6829167 magnetization      12.9061934

 Broyden mixing:
  rms(total) = 0.10728E+00    rms(broyden)= 0.10728E+00
  rms(prec ) = 0.16717E+00
  weight for this iteration     100.00

 eigenvalues of (default mixing * dielectric matrix)
  average eigenvalue GAMMA=   0.7288
  2.2653  1.0965  1.0965  0.6903  0.6903  0.5716  0.1346  0.2095  0.2258  0.3075

 Free energy of the ion-electron system (eV)
  ---------------------------------------------------
  alpha Z        PSCENC =       532.33161010
  Ewald energy   TEWEN  =     -9280.94548480
  -Hartree energ DENC   =     -2943.38187977
  -exchange      EXHF   =         0.00000000
  -V(xc)+E(xc)   XCENC  =        75.40948323
  PAW double counting   =     12869.02589243   -13213.53533992
  entropy T*S    EENTRO =        -0.00239720
  eigenvalues    EBANDS =       628.16493338
  atomic energy  EATOM  =     11229.46195210
  Solvation  Ediel_sol  =         0.00000000
  ---------------------------------------------------
  free energy    TOTEN  =      -103.47123045 eV

  energy without entropy =     -103.46883325  energy(sigma->0) =     -103.47003185


--------------------------------------------------------------------------------------------------------




--------------------------------------- Iteration      1(  16)  ---------------------------------------


    POTLOK:  cpu time    0.0979: real time    0.0981
    SETDIJ:  cpu time    0.0366: real time    0.0366
    EDDIAG:  cpu time    3.3857: real time    3.3896
  RMM-DIIS:  cpu time   11.9478: real time   11.9607
    ORTHCH:  cpu time    0.6332: real time    0.6337
       DOS:  cpu time    0.0038: real time    0.0040
    CHARGE:  cpu time    0.7062: real time    0.7070
    MIXING:  cpu time    0.0027: real time    0.0027
    --------------------------------------------
      LOOP:  cpu time   16.8139: real time   16.8325

 eigenvalue-minimisations  : 14925
 total energy-change (2. order) :-0.2625241E-03  (-0.1929305E-02)
 number of electron     128.0000329 magnetization      17.3305292
 augmentation part       67.7062281 magnetization      12.9110614

 Broyden mixing:
  rms(total) = 0.74034E-01    rms(broyden)= 0.74033E-01
  rms(prec ) = 0.10374E+00
  weight for this iteration     100.00

 eigenvalues of (default mixing * dielectric matrix)
  average eigenvalue GAMMA=   0.7209
  2.3475  1.1369  1.1369  0.7052  0.7052  0.5919  0.4307  0.1346  0.2096  0.2252
  0.3064

 Free energy of the ion-electron system (eV)
  ---------------------------------------------------
  alpha Z        PSCENC =       532.33161010
  Ewald energy   TEWEN  =     -9280.94548480
  -Hartree energ DENC   =     -2942.45235216
  -exchange      EXHF   =         0.00000000
  -V(xc)+E(xc)   XCENC  =        75.44132108
  PAW double counting   =     12900.00015986   -13244.66174635
  entropy T*S    EENTRO =        -0.00255273
  eigenvalues    EBANDS =       627.35559992
  atomic energy  EATOM  =     11229.46195210
  Solvation  Ediel_sol  =         0.00000000
  ---------------------------------------------------
  free energy    TOTEN  =      -103.47149298 eV

  energy without entropy =     -103.46894024  energy(sigma->0) =     -103.47021661


--------------------------------------------------------------------------------------------------------




--------------------------------------- Iteration      1(  17)  ---------------------------------------


    POTLOK:  cpu time    0.0981: real time    0.0983
    SETDIJ:  cpu time    0.0364: real time    0.0365
    EDDIAG:  cpu time    3.4047: real time    3.4085
  RMM-DIIS:  cpu time   11.0256: real time   11.0374
    ORTHCH:  cpu time    0.6332: real time    0.6338
       DOS:  cpu time    0.0037: real time    0.0038
    CHARGE:  cpu time    0.7150: real time    0.7155
    MIXING:  cpu time    0.0030: real time    0.0030
    --------------------------------------------
      LOOP:  cpu time   15.9196: real time   15.9368

 eigenvalue-minimisations  : 13756
 total energy-change (2. order) : 0.6789739E-03  (-0.5619386E-03)
 number of electron     128.0000329 magnetization      17.4211325
 augmentation part       67.7234953 magnetization      13.0165277

 Broyden mixing:
  rms(total) = 0.45370E-01    rms(broyden)= 0.45370E-01
  rms(prec ) = 0.59578E-01
  weight for this iteration     100.00

 eigenvalues of (default mixing * dielectric matrix)
  average eigenvalue GAMMA=   0.7855
  2.5595  1.7789  0.9602  0.9602  0.7049  0.7049  0.5752  0.1346  0.2096  0.2254
  0.3243  0.2888

 Free energy of the ion-electron system (eV)
  ---------------------------------------------------
  alpha Z        PSCENC =       532.33161010
  Ewald energy   TEWEN  =     -9280.94548480
  -Hartree energ DENC   =     -2942.08873056
  -exchange      EXHF   =         0.00000000
  -V(xc)+E(xc)   XCENC  =        75.47725389
  PAW double counting   =     12907.31180782   -13251.98229872
  entropy T*S    EENTRO =        -0.00254008
  eigenvalues    EBANDS =       626.96561624
  atomic energy  EATOM  =     11229.46195210
  Solvation  Ediel_sol  =         0.00000000
  ---------------------------------------------------
  free energy    TOTEN  =      -103.47081400 eV

  energy without entropy =     -103.46827392  energy(sigma->0) =     -103.46954396


--------------------------------------------------------------------------------------------------------




--------------------------------------- Iteration      1(  18)  ---------------------------------------


    POTLOK:  cpu time    0.0984: real time    0.1052
    SETDIJ:  cpu time    0.0363: real time    0.0363
    EDDIAG:  cpu time    3.4065: real time    3.4108
  RMM-DIIS:  cpu time   12.1881: real time   12.2033
    ORTHCH:  cpu time    0.6361: real time    0.6369
       DOS:  cpu time    0.0037: real time    0.0038
    CHARGE:  cpu time    0.7139: real time    0.7146
    MIXING:  cpu time    0.0032: real time    0.0032
    --------------------------------------------
      LOOP:  cpu time   17.0863: real time   17.1142

 eigenvalue-minimisations  : 15267
 total energy-change (2. order) :-0.5987551E-03  (-0.3360595E-03)
 number of electron     128.0000329 magnetization      17.4420581
 augmentation part       67.7322066 magnetization      13.0316894

 Broyden mixing:
  rms(total) = 0.12023E-01    rms(broyden)= 0.12022E-01
  rms(prec ) = 0.13177E-01
  weight for this iteration     100.00

 eigenvalues of (default mixing * dielectric matrix)
  average eigenvalue GAMMA=   0.8334
  2.4787  2.3202  1.0583  1.0583  0.7358  0.7358  0.6895  0.5753  0.1346  0.2096
  0.2254  0.3210  0.2915

 Free energy of the ion-electron system (eV)
  ---------------------------------------------------
[...]
     79      11.4389      0.00000
     80      11.8827      0.00000
     81      11.8904      0.00000
     82      12.0843      0.00000
     83      12.1280      0.00000
     84      12.3544      0.00000


--------------------------------------------------------------------------------------------------------


 soft charge-density along one line, spin component           1
         0         1         2         3         4         5         6         7         8         9
 total charge-density along one line

 soft charge-density along one line, spin component           2
         0         1         2         3         4         5         6         7         8         9
 total charge-density along one line

 pseudopotential strength for first ion, spin component:           1
 -1.809   0.001  -0.008  -0.001   0.000  -2.436   0.000  -0.007
  0.001  -1.807  -0.017   0.002   0.024   0.000  -2.434  -0.016
 -0.008  -0.017  -1.883   0.017   0.000  -0.007  -0.016  -2.507
 -0.001   0.002   0.017  -1.807   0.024  -0.000   0.002   0.016
  0.000   0.024   0.000   0.024  -1.884   0.000   0.023   0.000
 -2.436   0.000  -0.007  -0.000   0.000  -2.995   0.000  -0.007
  0.000  -2.434  -0.016   0.002   0.023   0.000  -2.993  -0.016
 -0.007  -0.016  -2.507   0.016   0.000  -0.007  -0.016  -3.062
 -0.000   0.002   0.016  -2.434   0.023  -0.000   0.002   0.016
  0.000   0.023   0.000   0.023  -2.508   0.000   0.022   0.000
 -0.002   0.005  -0.000  -0.005   0.000  -0.002   0.005  -0.000
 -0.004   0.009  -0.000  -0.009   0.000  -0.004   0.008  -0.000
 -0.001  -0.007   0.000   0.003   0.001  -0.001  -0.007   0.000
  0.003   0.001  -0.011  -0.001   0.000   0.003   0.001  -0.010
  0.001   0.003  -0.000  -0.007   0.001   0.001   0.003  -0.000
 -0.002  -0.007   0.000   0.004   0.001  -0.002  -0.007   0.000
  0.004   0.002  -0.011  -0.002   0.000   0.004   0.002  -0.010
  0.002   0.004  -0.000  -0.007   0.001   0.002   0.004  -0.000
 pseudopotential strength for first ion, spin component:           2
 -1.493   0.008  -0.008  -0.008   0.000  -2.136   0.008  -0.008
  0.008  -1.491   0.007   0.002  -0.011   0.008  -2.134   0.007
 -0.008   0.007  -1.408  -0.007   0.000  -0.008   0.007  -2.054
 -0.008   0.002  -0.007  -1.491  -0.011  -0.008   0.002  -0.007
  0.000  -0.011   0.000  -0.011  -1.407   0.000  -0.010   0.000
 -2.136   0.008  -0.008  -0.008   0.000  -2.709   0.008  -0.007
  0.008  -2.134   0.007   0.002  -0.010   0.008  -2.707   0.007
 -0.008   0.007  -2.054  -0.007   0.000  -0.007   0.007  -2.630
 -0.008   0.002  -0.007  -2.134  -0.010  -0.008   0.002  -0.007
  0.000  -0.010   0.000  -0.010  -2.053   0.000  -0.010   0.000
 -0.003  -0.002  -0.000   0.002   0.000  -0.003  -0.002  -0.000
 -0.006  -0.004  -0.000   0.004   0.000  -0.005  -0.004  -0.000
  0.003  -0.008   0.001  -0.002   0.002   0.003  -0.008   0.001
 -0.002  -0.003  -0.011   0.003   0.000  -0.002  -0.003  -0.011
 -0.003  -0.002  -0.001  -0.008   0.002  -0.003  -0.002  -0.001
  0.004  -0.008   0.002  -0.003   0.002   0.004  -0.008   0.001
 -0.003  -0.004  -0.012   0.004   0.000  -0.003  -0.004  -0.011
 -0.004  -0.003  -0.002  -0.008   0.002  -0.004  -0.003  -0.001
 total augmentation occupancy for first ion, spin component:           1
  2.069  -0.027   0.006   0.027  -0.000  -0.559   0.018  -0.013  -0.018   0.000  -0.079   0.027   0.008   0.036  -0.008   0.000
 -0.027   2.138  -0.016   0.064  -0.008   0.018  -0.611   0.002  -0.068   0.015  -0.016  -0.000   0.025  -0.005   0.040  -0.012
  0.006  -0.016   2.717   0.016   0.000  -0.013   0.003  -1.049  -0.003   0.000  -0.019   0.005   0.013  -0.072  -0.013  -0.000
  0.027   0.064   0.016   2.138  -0.008  -0.018  -0.068  -0.002  -0.611   0.015   0.016   0.000   0.040   0.005   0.025  -0.009
  0.000  -0.008  -0.000  -0.008   2.783  -0.000   0.015  -0.000   0.015  -1.089   0.000  -0.000   0.024   0.000   0.024  -0.000
 -0.559   0.018  -0.013  -0.018   0.000   0.845  -0.013   0.004   0.013   0.000   0.050  -0.017  -0.011  -0.020   0.011   0.000
  0.018  -0.611   0.003  -0.068   0.015  -0.013   0.882   0.003   0.070  -0.016   0.012   0.001   0.005   0.009  -0.022   0.001
 -0.013   0.002  -1.049  -0.002  -0.000   0.004   0.003   1.116  -0.003  -0.000   0.018  -0.005  -0.012   0.071   0.012   0.001
 -0.018  -0.068  -0.003  -0.611   0.015   0.013   0.070  -0.003   0.882  -0.016  -0.012  -0.001  -0.022  -0.009   0.005   0.006
  0.000   0.015   0.000   0.015  -1.089   0.000  -0.016  -0.000  -0.016   1.130   0.000   0.000  -0.021  -0.000  -0.021   0.002
 -0.079  -0.016  -0.019   0.016   0.000   0.050   0.012   0.018  -0.012   0.000   2.116  -0.280   0.013   0.059  -0.013  -0.002
  0.027  -0.000   0.005   0.000  -0.000  -0.017   0.001  -0.005  -0.001   0.000  -0.280   0.047  -0.001   0.001   0.001   0.000
  0.008   0.025   0.013   0.040   0.024  -0.011   0.005  -0.012  -0.022  -0.021   0.013  -0.001   0.258  -0.001   0.001  -0.026
  0.036  -0.005  -0.072   0.005   0.000  -0.020   0.009   0.071  -0.009   0.000   0.059   0.001  -0.001   0.262   0.001   0.000
 -0.008   0.040  -0.013   0.025   0.024   0.011  -0.022   0.012   0.005  -0.021  -0.013   0.001   0.001   0.001   0.258  -0.002
  0.000  -0.012  -0.000  -0.009  -0.000   0.000   0.001   0.001   0.006   0.002  -0.002   0.000  -0.026   0.000  -0.002   0.003
 -0.009  -0.000  -0.006   0.000  -0.000   0.006  -0.000  -0.008   0.000   0.000  -0.007  -0.000   0.000  -0.027  -0.000  -0.000
 -0.000  -0.009   0.000  -0.012  -0.000  -0.000   0.006  -0.001   0.001   0.002   0.002  -0.000  -0.002  -0.000  -0.026   0.000
 total augmentation occupancy for first ion, spin component:           2
  0.574  -0.091  -0.076   0.091  -0.000  -0.352   0.090   0.064  -0.090  -0.000  -0.030  -0.000   0.049  -0.082  -0.049  -0.002
 -0.091   0.563   0.076  -0.021  -0.152   0.090  -0.344  -0.030   0.017   0.081  -0.048   0.002  -0.011  -0.039  -0.086  -0.001
 -0.076   0.076   0.882  -0.076  -0.000   0.061  -0.031  -0.421   0.031  -0.000  -0.004  -0.001  -0.003   0.008   0.003  -0.000
  0.091  -0.021  -0.076   0.563  -0.152  -0.090   0.017   0.030  -0.344   0.081   0.048  -0.002  -0.086   0.039  -0.011   0.002
  0.000  -0.152  -0.000  -0.152   0.885   0.000   0.082  -0.000   0.082  -0.423   0.000   0.000  -0.018  -0.000  -0.018   0.000
 -0.352   0.090   0.061  -0.090   0.000   0.174  -0.082  -0.048   0.082  -0.000   0.023  -0.003  -0.033   0.059   0.033   0.003
  0.090  -0.344  -0.031   0.017   0.082  -0.082   0.168   0.003  -0.013  -0.035   0.033  -0.006   0.008   0.025   0.061   0.000
  0.064  -0.030  -0.421   0.030  -0.000  -0.048   0.003   0.122  -0.003  -0.000   0.002   0.000   0.005  -0.008  -0.005   0.000
 -0.090   0.017   0.031  -0.344   0.082   0.082  -0.013  -0.003   0.168  -0.035  -0.033   0.006   0.061  -0.025   0.008  -0.005
 -0.000   0.081  -0.000   0.081  -0.423  -0.000  -0.035  -0.000  -0.035   0.124  -0.000  -0.000   0.018   0.000   0.018  -0.001
 -0.030  -0.048  -0.004   0.048   0.000   0.023   0.033   0.002  -0.033  -0.000  -0.089   0.018  -0.000   0.001   0.000  -0.002
 -0.000   0.002  -0.001  -0.002   0.000  -0.003  -0.006   0.000   0.006  -0.000   0.018  -0.003  -0.002   0.000   0.002   0.000
  0.049  -0.011  -0.003  -0.086  -0.018  -0.033   0.008   0.005   0.061   0.018  -0.000  -0.002  -0.006   0.008   0.003   0.000
 -0.082  -0.039   0.008   0.039  -0.000   0.059   0.025  -0.008  -0.025  -0.000   0.001   0.000   0.008  -0.006  -0.008  -0.001
 -0.049  -0.086   0.003  -0.011  -0.018   0.033   0.061  -0.005   0.008   0.018   0.000   0.002   0.003  -0.008  -0.006  -0.000
 -0.002  -0.001  -0.000   0.002   0.000   0.003   0.000   0.000  -0.005  -0.001  -0.002   0.000   0.000  -0.001  -0.000  -0.000
  0.003   0.001  -0.003  -0.001  -0.000  -0.005  -0.003   0.002   0.003  -0.000   0.000  -0.000  -0.001   0.000   0.001   0.000
  0.002   0.002   0.000  -0.001   0.000  -0.003  -0.005  -0.000   0.000  -0.001   0.002  -0.000  -0.000   0.001   0.000   0.000


------------------------ aborting loop because EDIFF is reached ----------------------------------------





 total charge     

# of ion       s       p       d       tot
------------------------------------------
    1        0.471   0.431   8.359   9.261
    2        0.472   0.427   8.381   9.280
    3        0.472   0.434   8.371   9.277
    4        0.474   0.430   8.371   9.275
    5        0.474   0.430   8.371   9.275
    6        0.472   0.434   8.371   9.277
    7        0.472   0.427   8.381   9.280
    8        0.471   0.431   8.359   9.261
    9        0.306   0.290   4.917   5.514
   10        0.320   0.293   4.968   5.581
   11        0.339   0.343   5.003   5.685
   12        0.340   0.338   4.903   5.581
   13        0.341   0.340   4.943   5.624
   14        0.355   0.352   4.960   5.667
   15        1.243   1.733   0.306   3.282
   16        1.240   1.744   0.301   3.286
--------------------------------------------------
tot          8.260   8.879  97.267 114.406



 magnetization (x)

# of ion       s       p       d       tot
------------------------------------------
    1       -0.014  -0.013   0.425   0.398
    2       -0.013  -0.013   0.427   0.401
    3       -0.015  -0.007   0.438   0.416
    4       -0.014  -0.012   0.444   0.418
    5       -0.014  -0.012   0.444   0.418
    6       -0.015  -0.007   0.438   0.416
    7       -0.013  -0.013   0.427   0.401
    8       -0.014  -0.013   0.425   0.398
    9        0.038   0.038   3.608   3.684
   10        0.036   0.006   3.564   3.605
   11        0.028   0.025   3.358   3.410
   12       -0.042  -0.054  -3.490  -3.586
   13        0.032   0.013   3.313   3.357
   14        0.017   0.018   3.418   3.452
   15       -0.021  -0.085   0.000  -0.106
   16       -0.016  -0.074  -0.004  -0.095
--------------------------------------------------
tot         -0.043  -0.204  17.234  16.988

    CHARGE:  cpu time    0.6951: real time    0.6960
    FORLOC:  cpu time    0.0072: real time    0.0072
    FORNL :  cpu time    5.0830: real time    5.0882
    STRESS:  cpu time   15.2917: real time   15.3103
    FORCOR:  cpu time    0.1003: real time    0.1004
    FORHAR:  cpu time    0.0161: real time    0.0161
    MIXING:  cpu time    0.0037: real time    0.0037
    OFIELD:  cpu time    0.0000: real time    0.0000

  FORCE on cell =-STRESS in cart. coord.  units (eV):
  Direction    XX          YY          ZZ          XY          YZ          ZX
  --------------------------------------------------------------------------------------
  Alpha Z   532.33161   532.33161   532.33161
  Ewald   -2970.84316 -2970.84316 -3339.28773     0.00000    -0.00000    -0.00000
  Hartree  1094.43529  1094.43529   753.04582    -0.00000    -0.00000    -0.00000
  E(xc)    -670.78597  -670.78597  -670.98646    -0.00000    -0.00000    -0.00000
  Local    -481.10849  -481.10849   228.35624     0.00000    -0.00000     0.00000
  n-local  -148.96498  -145.67068  -146.26404    -0.26317    -0.84823     0.08800
  augment  1579.46391  1579.46391  1579.49143    -0.00000     0.00000    -0.00000
  Kinetic  1055.00009  1070.54966  1063.03906     0.64241    -0.32776     1.16790
  Fock        0.00000     0.00000     0.00000     0.00000     0.00000     0.00000
  -------------------------------------------------------------------------------------
  Total      -1.04975    -1.04975    -0.27407    -0.00000     0.00000     0.00000
  in kB      -7.95670    -7.95670    -2.07737    -0.00000     0.00000     0.00000
  external pressure =       -6.00 kB  Pullay stress =        0.00 kB


 VOLUME and BASIS-vectors are now :
 -----------------------------------------------------------------------------
  energy-cutoff  :      550.00
  volume of cell :      211.38
      direct lattice vectors                 reciprocal lattice vectors
     5.956919078  0.000000000  0.000000000     0.167872014  0.000000000  0.000000000
     0.000000000  5.956919078  0.000000000     0.000000000  0.167872014  0.000000000
     0.000000000  0.000000000  5.956919078     0.000000000  0.000000000  0.167872014

  length of vectors
     5.956919078  5.956919078  5.956919078     0.167872014  0.167872014  0.167872014


 FORCES acting on ions
    electron-ion (+dipol)            ewald-force                    non-local-force                 convergence-correction
 -----------------------------------------------------------------------------------------------
   -.242E+02 0.242E+02 0.180E+03   0.241E+02 -.241E+02 -.177E+03   0.103E+00 -.103E+00 -.253E+01   -.232E-01 0.232E-01 0.403E-01
   0.242E+02 0.242E+02 0.180E+03   -.241E+02 -.241E+02 -.177E+03   -.103E+00 -.103E+00 -.253E+01   0.232E-01 0.232E-01 0.403E-01
   -.242E+02 -.242E+02 0.180E+03   0.241E+02 0.241E+02 -.177E+03   0.103E+00 0.103E+00 -.253E+01   -.232E-01 -.232E-01 0.403E-01
   0.242E+02 -.242E+02 0.180E+03   -.241E+02 0.241E+02 -.177E+03   -.103E+00 0.103E+00 -.253E+01   0.232E-01 -.232E-01 0.403E-01
   -.242E+02 0.242E+02 -.180E+03   0.241E+02 -.241E+02 0.177E+03   0.103E+00 -.103E+00 0.253E+01   -.232E-01 0.232E-01 -.403E-01
   0.242E+02 0.242E+02 -.180E+03   -.241E+02 -.241E+02 0.177E+03   -.103E+00 -.103E+00 0.253E+01   0.232E-01 0.232E-01 -.403E-01
   -.242E+02 -.242E+02 -.180E+03   0.241E+02 0.241E+02 0.177E+03   0.103E+00 0.103E+00 0.253E+01   -.232E-01 -.232E-01 -.403E-01
   0.242E+02 -.242E+02 -.180E+03   -.241E+02 0.241E+02 0.177E+03   -.103E+00 0.103E+00 0.253E+01   0.232E-01 -.232E-01 -.403E-01
   0.177E-12 -.356E-14 -.650E-12   -.557E-13 0.183E-13 0.128E-13   0.000E+00 0.000E+00 0.000E+00   0.466E-13 0.443E-13 0.165E-13
   -.212E-13 0.222E-12 -.552E-13   0.137E-13 -.136E-13 -.583E-13   0.000E+00 0.000E+00 0.000E+00   -.141E-13 -.521E-13 -.185E-14
   -.171E-13 -.550E-13 0.213E-12   -.103E-12 0.101E-14 0.703E-13   0.000E+00 0.000E+00 0.000E+00   0.464E-13 0.345E-13 -.198E-13
   0.154E-12 -.516E-13 0.162E-11   0.174E-12 0.159E-13 0.302E-13   0.000E+00 0.000E+00 0.000E+00   0.287E-13 0.480E-13 -.218E-13
   0.151E-12 0.253E-12 0.972E-12   0.162E-15 -.149E-13 0.704E-13   0.000E+00 0.000E+00 0.000E+00   0.500E-13 -.316E-13 -.382E-13
   -.186E-13 0.211E-12 0.204E-12   -.169E-12 0.426E-13 0.161E-13   0.000E+00 0.000E+00 0.000E+00   0.152E-13 -.423E-13 -.251E-13
   -.243E-13 -.203E-13 -.123E-13   -.114E-14 -.550E-15 -.313E-16   0.000E+00 0.000E+00 0.000E+00   -.670E-14 0.143E-13 0.509E-14
   -.135E-13 -.473E-12 -.146E-13   0.446E-15 0.148E-13 0.352E-14   0.000E+00 0.000E+00 0.000E+00   0.131E-13 -.127E-13 0.758E-14
 -----------------------------------------------------------------------------------------------
   0.858E-11 -.141E-10 -.173E-10   -.612E-14 0.636E-13 0.230E-12   -.278E-16 0.000E+00 0.000E+00   0.357E-12 0.355E-12 -.532E-12


 POSITION                                       TOTAL-FORCE (eV/Angst)
 -----------------------------------------------------------------------------------
      1.46392      1.51454      1.60226         0.001559     -0.001559     -0.006128
      4.49300      1.51454      1.60226        -0.001559     -0.001559     -0.006128
      1.46392      4.44238      1.60226         0.001559      0.001559     -0.006128
      4.49300      4.44238      1.60226        -0.001559      0.001559     -0.006128
      1.46392      1.51454      4.35466         0.001559     -0.001559      0.006128
      4.49300      1.51454      4.35466        -0.001559     -0.001559      0.006128
      1.46392      4.44238      4.35466         0.001559      0.001559      0.006128
      4.49300      4.44238      4.35466        -0.001559      0.001559      0.006128
      2.97846      0.00000      0.00000         0.000000      0.000000      0.000000
      0.00000      2.97846      0.00000         0.000000      0.000000      0.000000
      0.00000      0.00000      2.97846         0.000000      0.000000      0.000000
      2.97846      0.00000      2.97846         0.000000      0.000000      0.000000
      2.97846      2.97846      2.97846         0.000000      0.000000      0.000000
      0.00000      2.97846      2.97846         0.000000      0.000000      0.000000
      0.00000      0.00000      0.00000         0.000000      0.000000      0.000000
      2.97846      2.97846      0.00000         0.000000      0.000000      0.000000
 -----------------------------------------------------------------------------------
    total drift:                                0.000000     -0.000000     -0.000000


--------------------------------------------------------------------------------------------------------



  FREE ENERGIE OF THE ION-ELECTRON SYSTEM (eV)
  ---------------------------------------------------
  free  energy   TOTEN  =      -103.47142208 eV

  energy  without entropy=     -103.46882936  energy(sigma->0) =     -103.47012572



--------------------------------------------------------------------------------------------------------


    POTLOK:  cpu time    0.1352: real time    0.1354


--------------------------------------------------------------------------------------------------------




--------------------------------------------------------------------------------------------------------


  
 reached required accuracy - stopping structural energy minimisation
     LOOP+:  cpu time  396.1867: real time  396.7507
    4ORBIT:  cpu time    0.0000: real time    0.0000



 total charge     

# of ion       s       p       d       tot
------------------------------------------
    1        0.471   0.431   8.359   9.261
    2        0.472   0.427   8.381   9.280
    3        0.472   0.434   8.371   9.277
    4        0.474   0.430   8.371   9.275
    5        0.474   0.430   8.371   9.275
    6        0.472   0.434   8.371   9.277
    7        0.472   0.427   8.381   9.280
    8        0.471   0.431   8.359   9.261
    9        0.306   0.290   4.917   5.514
   10        0.320   0.293   4.968   5.581
   11        0.339   0.343   5.003   5.685
   12        0.340   0.338   4.903   5.581
   13        0.341   0.340   4.943   5.624
   14        0.355   0.352   4.960   5.667
   15        1.243   1.733   0.306   3.282
   16        1.240   1.744   0.301   3.286
--------------------------------------------------
tot          8.260   8.879  97.267 114.406



 magnetization (x)

# of ion       s       p       d       tot
------------------------------------------
    1       -0.014  -0.013   0.425   0.398
    2       -0.013  -0.013   0.427   0.401
    3       -0.015  -0.007   0.438   0.416
    4       -0.014  -0.012   0.444   0.418
    5       -0.014  -0.012   0.444   0.418
    6       -0.015  -0.007   0.438   0.416
    7       -0.013  -0.013   0.427   0.401
    8       -0.014  -0.013   0.425   0.398
    9        0.038   0.038   3.608   3.684
   10        0.036   0.006   3.564   3.605
   11        0.028   0.025   3.358   3.410
   12       -0.042  -0.054  -3.490  -3.586
   13        0.032   0.013   3.313   3.357
   14        0.017   0.018   3.418   3.452
   15       -0.021  -0.085   0.000  -0.106
   16       -0.016  -0.074  -0.004  -0.095
--------------------------------------------------
tot         -0.043  -0.204  17.234  16.988


 total amount of memory used by VASP MPI-rank0   103427. kBytes
=======================================================================

   base      :      30000. kBytes
   nonlr-proj:       6813. kBytes
   fftplans  :       1269. kBytes
   grid      :       6573. kBytes
   one-center:        497. kBytes
   wavefun   :      58275. kBytes

  
  
 General timing and accounting informations for this job:
 ========================================================
  
                  Total CPU time used (sec):      406.848
                            User time (sec):      384.453
                          System time (sec):       22.395
                         Elapsed time (sec):      408.876
  
                   Maximum memory used (kb):      136800.
                   Average memory used (kb):           0.
  
                          Minor page faults:     10002238
                          Major page faults:           16
                 Voluntary context switches:         1851
