 vasp.5.4.4.18Apr17-6-g9f103f2a35 (build May 21 2018 20:56:50) complex           
 executed on             LinuxGNU date 2021.10.15  15:50:02
 running on   12 total cores
 distrk:  each k-point on   12 cores,    1 groups
 distr:  one band on NCORES_PER_BAND=   1 cores,   12 groups


--------------------------------------------------------------------------------------------------------


 INCAR:
 POTCAR:    PAW_PBE Ni 02Aug2007                  
 POTCAR:    PAW_PBE Mn 06Sep2000                  
 POTCAR:    PAW_PBE In 08Apr2002                  

 ----------------------------------------------------------------------------- 
|                                                                             |
|           W    W    AA    RRRRR   N    N  II  N    N   GGGG   !!!           |
|           W    W   A  A   R    R  NN   N  II  NN   N  G    G  !!!           |
|           W    W  A    A  R    R  N N  N  II  N N  N  G       !!!           |
|           W WW W  AAAAAA  RRRRR   N  N N  II  N  N N  G  GGG   !            |
|           WW  WW  A    A  R   R   N   NN  II  N   NN  G    G                |
|           W    W  A    A  R    R  N    N  II  N    N   GGGG   !!!           |
|                                                                             |
|      For optimal performance we recommend to set                            |
|        NCORE= 4 - approx SQRT( number of cores)                             |
|      NCORE specifies how many cores store one orbital (NPAR=cpu/NCORE).     |
|      This setting can  greatly improve the performance of VASP for DFT.     |
|      The default,   NCORE=1            might be grossly inefficient         |
|      on modern multi-core architectures or massively parallel machines.     |
|      Do your own testing !!!!                                               |
|      Unfortunately you need to use the default for GW and RPA calculations. |
|      (for HF NCORE is supported but not extensively tested yet)             |
|                                                                             |
 ----------------------------------------------------------------------------- 

 POTCAR:    PAW_PBE Ni 02Aug2007                  
   VRHFIN =Ni:                                                                  
   LEXCH  = PE                                                                  
   EATOM  =  1077.6739 eV,   79.2068 Ry                                         
                                                                                
   TITEL  = PAW_PBE Ni 02Aug2007                                                
   LULTRA =        F    use ultrasoft PP ?                                      
   IUNSCR =        1    unscreen: 0-lin 1-nonlin 2-no                           
   RPACOR =    2.000    partial core radius                                     
   POMASS =   58.690; ZVAL   =   10.000    mass and valenz                      
   RCORE  =    2.300    outmost cutoff radius                                   
   RWIGS  =    2.430; RWIGS  =    1.286    wigner-seitz radius (au A)           
   ENMAX  =  269.532; ENMIN  =  202.149 eV                                      
   RCLOC  =    1.201    cutoff for local pot                                    
   LCOR   =        T    correct aug charges                                     
   LPAW   =        T    paw PP                                                  
   EAUG   =  544.565                                                            
   DEXC   =    0.000                                                            
   RMAX   =    2.357    core radius for proj-oper                               
   RAUG   =    1.300    factor for augmentation sphere                          
   RDEP   =    2.390    radius for radial grids                                 
   RDEPT  =    1.838    core radius for aug-charge                              
                                                                                
   Atomic configuration                                                         
    9 entries                                                                   
     n  l   j            E        occ.                                          
     1  0  0.50     -8206.4253   2.0000                                         
     2  0  0.50      -976.1748   2.0000                                         
     2  1  1.50      -839.0571   6.0000                                         
     3  0  0.50      -105.9991   2.0000                                         
     3  1  1.50       -66.4603   6.0000                                         
     3  2  2.50        -4.6458   9.0000                                         
     4  0  0.50        -4.4926   1.0000                                         
     4  1  1.50        -4.0817   0.0000                                         
     4  3  2.50        -1.3606   0.0000                                         
   Description                                                                  
     l       E           TYP  RCUT    TYP  RCUT                                 
     2     -4.6457903     23  2.300                                             
     2     -6.0063729     23  2.300                                             
     0     -4.4925590     23  2.300                                             
     0      5.0102601     23  2.300                                             
     1     -2.7211652     23  2.300                                             
     1     16.5183231     23  2.300                                             
  local pseudopotential read in
  partial core-charges read in
  partial kinetic energy density read in
  atomic valenz-charges read in
  non local Contribution for L=           2  read in
    real space projection operators read in
  non local Contribution for L=           2  read in
    real space projection operators read in
  non local Contribution for L=           0  read in
    real space projection operators read in
  non local Contribution for L=           0  read in
    real space projection operators read in
  non local Contribution for L=           1  read in
    real space projection operators read in
  non local Contribution for L=           1  read in
    real space projection operators read in
    PAW grid and wavefunctions read in

   number of l-projection  operators is LMAX  =           6
   number of lm-projection operators is LMMAX =          18

 POTCAR:    PAW_PBE Mn 06Sep2000                  
   VRHFIN =Mn: d6 s1                                                            
   LEXCH  = PE                                                                  
   EATOM  =   416.7541 eV,   30.6306 Ry                                         
                                                                                
   TITEL  = PAW_PBE Mn 06Sep2000                                                
   LULTRA =        F    use ultrasoft PP ?                                      
   IUNSCR =        1    unscreen: 0-lin 1-nonlin 2-no                           
   RPACOR =    2.000    partial core radius                                     
   POMASS =   54.938; ZVAL   =    7.000    mass and valenz                      
   RCORE  =    2.300    outmost cutoff radius                                   
   RWIGS  =    2.500; RWIGS  =    1.323    wigner-seitz radius (au A)           
   ENMAX  =  269.864; ENMIN  =  202.398 eV                                      
   RCLOC  =    1.725    cutoff for local pot                                    
   LCOR   =        T    correct aug charges                                     
   LPAW   =        T    paw PP                                                  
   EAUG   =  500.711                                                            
   DEXC   =    0.000                                                            
   RMAX   =    2.343    core radius for proj-oper                               
   RAUG   =    1.300    factor for augmentation sphere                          
   RDEP   =    2.338    radius for radial grids                                 
   RDEPT  =    1.911    core radius for aug-charge                              
                                                                                
   Atomic configuration                                                         
    9 entries                                                                   
     n  l   j            E        occ.                                          
     1  0  0.50     -6424.8288   2.0000                                         
     2  0  0.50      -739.1154   2.0000                                         
     2  1  1.50      -625.3949   6.0000                                         
     3  0  0.50       -81.6100   2.0000                                         
     3  1  1.50       -50.4667   6.0000                                         
     3  2  2.50        -3.3745   6.0000                                         
     4  0  0.50        -4.1331   1.0000                                         
     4  1  0.50        -4.0817   0.0000                                         
     4  3  2.50        -1.3606   0.0000                                         
   Description                                                                  
     l       E           TYP  RCUT    TYP  RCUT                                 
     2     -3.3744664     23  2.300                                             
     2     -4.7350490     23  2.300                                             
     0     -4.1331408     23  2.300                                             
     0      7.6656614     23  2.300                                             
     1     -2.7211652     23  2.300                                             
     1     20.4087390     23  2.300                                             
  local pseudopotential read in
  partial core-charges read in
  partial kinetic energy density read in
  atomic valenz-charges read in
  non local Contribution for L=           2  read in
    real space projection operators read in
  non local Contribution for L=           2  read in
    real space projection operators read in
  non local Contribution for L=           0  read in
    real space projection operators read in
  non local Contribution for L=           0  read in
    real space projection operators read in
  non local Contribution for L=           1  read in
    real space projection operators read in
  non local Contribution for L=           1  read in
    real space projection operators read in
    PAW grid and wavefunctions read in

   number of l-projection  operators is LMAX  =           6
   number of lm-projection operators is LMMAX =          18

 POTCAR:    PAW_PBE In 08Apr2002                  
   VRHFIN =In: s2p1                                                             
   LEXCH  = PE                                                                  
   EATOM  =    53.7908 eV,    3.9535 Ry                                         
                                                                                
   TITEL  = PAW_PBE In 08Apr2002                                                
   LULTRA =        F    use ultrasoft PP ?                                      
   IUNSCR =        1    unscreen: 0-lin 1-nonlin 2-no                           
   RPACOR =    2.400    partial core radius                                     
   POMASS =  114.820; ZVAL   =    3.000    mass and valenz                      
   RCORE  =    3.100    outmost cutoff radius                                   
   RWIGS  =    3.170; RWIGS  =    1.677    wigner-seitz radius (au A)           
   ENMAX  =   95.934; ENMIN  =   71.951 eV                                      
   ICORE  =        3    local potential                                         
   LCOR   =        T    correct aug charges                                     
   LPAW   =        T    paw PP                                                  
   EAUG   =  237.125                                                            
   DEXC   =    0.000                                                            
   RMAX   =    3.168    core radius for proj-oper                               
   RAUG   =    1.300    factor for augmentation sphere                          
   RDEP   =    3.187    radius for radial grids                                 
   RDEPT  =    2.711    core radius for aug-charge                              
                                                                                
   Atomic configuration                                                         
   13 entries                                                                   
     n  l   j            E        occ.                                          
     1  0  0.50    -27747.9169   2.0000                                         
     2  0  0.50     -4154.4438   2.0000                                         
     2  1  1.50     -3728.4305   6.0000                                         
     3  0  0.50      -788.3680   2.0000                                         
     3  1  1.50      -648.9215   6.0000                                         
     3  2  2.50      -432.5893  10.0000                                         
     4  0  0.50      -119.6363   2.0000                                         
     4  1  1.50       -78.1086   6.0000                                         
     4  2  2.50       -18.6227  10.0000                                         
     5  0  0.50        -8.2107   2.0000                                         
     5  1  0.50        -2.5185   1.0000                                         
     5  2  2.50        -1.3606   0.0000                                         
     4  3  2.50        -2.7212   0.0000                                         
   Description                                                                  
     l       E           TYP  RCUT    TYP  RCUT                                 
     0     -8.2107306     23  3.100                                             
     0     -6.1485975     23  3.100                                             
     1     -2.5184867     23  3.100                                             
     1      3.2427302     23  3.100                                             
     2     -1.3605826     23  3.100                                             
     3     -1.3605826     23  3.100                                             
  local pseudopotential read in
  partial core-charges read in
  partial kinetic energy density read in
  atomic valenz-charges read in
  non local Contribution for L=           0  read in
    real space projection operators read in
  non local Contribution for L=           0  read in
    real space projection operators read in
  non local Contribution for L=           1  read in
    real space projection operators read in
  non local Contribution for L=           1  read in
    real space projection operators read in
  non local Contribution for L=           2  read in
    real space projection operators read in
    PAW grid and wavefunctions read in

   number of l-projection  operators is LMAX  =           5
   number of lm-projection operators is LMMAX =          13

 Optimization of the real space projectors (new method)

 maximal supplied QI-value         = 16.25
 optimisation between [QCUT,QGAM] = [ 11.86, 23.89] = [ 39.41,159.82] Ry 
 Optimized for a Real-space Cutoff    1.33 Angstroem

   l    n(q)    QCUT    max X(q) W(low)/X(q) W(high)/X(q)  e(spline) 
   2      9    11.864    60.317    0.21E-03    0.51E-03    0.25E-06
   2      9    11.864    55.921    0.21E-03    0.51E-03    0.26E-06
   0      9    11.864    51.690    0.22E-03    0.30E-04    0.17E-06
   0      9    11.864    30.015    0.20E-03    0.28E-04    0.15E-06
   1      9    11.864    18.849    0.76E-04    0.33E-03    0.17E-06
   1      9    11.864    14.624    0.60E-04    0.28E-03    0.15E-06
 Optimization of the real space projectors (new method)

 maximal supplied QI-value         = 16.25
 optimisation between [QCUT,QGAM] = [ 11.86, 23.89] = [ 39.41,159.82] Ry 
 Optimized for a Real-space Cutoff    1.36 Angstroem

   l    n(q)    QCUT    max X(q) W(low)/X(q) W(high)/X(q)  e(spline) 
   2      9    11.864   110.144    0.49E-03    0.50E-03    0.21E-06
   2      9    11.864   103.200    0.49E-03    0.51E-03    0.22E-06
   0     10    11.864    68.437    0.12E-03    0.41E-04    0.21E-06
   0     10    11.864    33.971    0.11E-03    0.36E-04    0.19E-06
   1      9    11.864    17.065    0.24E-03    0.26E-03    0.93E-07
   1      9    11.864    12.540    0.19E-03    0.20E-03    0.80E-07
 Optimization of the real space projectors (new method)

 maximal supplied QI-value         = 12.09
 optimisation between [QCUT,QGAM] = [ 11.97, 23.95] = [ 40.14,160.58] Ry 
 Optimized for a Real-space Cutoff    1.63 Angstroem

   l    n(q)    QCUT    max X(q) W(low)/X(q) W(high)/X(q)  e(spline) 
   0     12    11.973   106.980    0.33E-03    0.16E-03    0.25E-05
   0     12    11.973    81.086    0.37E-03    0.18E-03    0.28E-05
   1     11    11.973    53.097    0.22E-03    0.42E-03    0.40E-05
   1     11    11.973    32.621    0.20E-03    0.40E-03    0.37E-05
   2     11    11.973     8.820    0.30E-03    0.17E-03    0.41E-06
  PAW_PBE Ni 02Aug2007                  :
 energy of atom  1       EATOM=-1077.6739
 kinetic energy error for atom=    0.0027 (will be added to EATOM!!)
  PAW_PBE Mn 06Sep2000                  :
 energy of atom  2       EATOM= -416.7541
 kinetic energy error for atom=    0.0022 (will be added to EATOM!!)
  PAW_PBE In 08Apr2002                  :
 energy of atom  3       EATOM=  -53.7908
 kinetic energy error for atom=    0.0000 (will be added to EATOM!!)


 POSCAR: Ni2MnIn                                 
  positions in direct lattice
  velocities in cartesian coordinates
 exchange correlation table for  LEXCH =        8
   RHO(1)=    0.500       N(1)  =     2000
   RHO(2)=  100.500       N(2)  =     4000



--------------------------------------------------------------------------------------------------------


 ion  position               nearest neighbor table
   1  0.254  0.246  0.250-   9 2.55  13 2.55  15 2.58  10 2.58  12 2.58  16 2.58  11 2.60  14 2.60
                             3 2.93   2 2.93   5 2.98   5 2.98   2 3.02   3 3.02
   2  0.746  0.246  0.250-   9 2.55  13 2.55  15 2.58  10 2.58  12 2.58  16 2.58  11 2.60  14 2.60
                             4 2.93   1 2.93   6 2.98   6 2.98   1 3.02   4 3.02
   3  0.254  0.754  0.250-   9 2.55  13 2.55  15 2.58  10 2.58  12 2.58  16 2.58  11 2.60  14 2.60
                             1 2.93   4 2.93   7 2.98   7 2.98   4 3.02   1 3.02
   4  0.746  0.754  0.250-   9 2.55  13 2.55  15 2.58  10 2.58  12 2.58  16 2.58  11 2.60  14 2.60
                             2 2.93   3 2.93   8 2.98   8 2.98   3 3.02   2 3.02
   5  0.254  0.246  0.750-   9 2.55  13 2.55  15 2.58  10 2.58  12 2.58  16 2.58  11 2.60  14 2.60
                             7 2.93   6 2.93   1 2.98   1 2.98   6 3.02   7 3.02
   6  0.746  0.246  0.750-   9 2.55  13 2.55  15 2.58  10 2.58  12 2.58  16 2.58  11 2.60  14 2.60
                             8 2.93   5 2.93   2 2.98   2 2.98   5 3.02   8 3.02
   7  0.254  0.754  0.750-   9 2.55  13 2.55  15 2.58  10 2.58  12 2.58  16 2.58  11 2.60  14 2.60
                             5 2.93   8 2.93   3 2.98   3 2.98   8 3.02   5 3.02
   8  0.746  0.754  0.750-   9 2.55  13 2.55  15 2.58  10 2.58  12 2.58  16 2.58  11 2.60  14 2.60
                             6 2.93   7 2.93   4 2.98   4 2.98   7 3.02   6 3.02
   9  0.500  0.000  0.000-   1 2.55   2 2.55   3 2.55   4 2.55   5 2.55   6 2.55   7 2.55   8 2.55
                            10 2.98  13 2.98  15 2.98  13 2.98  10 2.98  15 2.98
  10  0.500  0.500  0.000-   1 2.58   2 2.58   3 2.58   4 2.58   5 2.58   6 2.58   7 2.58   8 2.58
                             9 2.98  11 2.98  16 2.98  16 2.98   9 2.98  11 2.98
  11  0.000  0.500  0.000-   1 2.60   2 2.60   3 2.60   4 2.60   5 2.60   6 2.60   7 2.60   8 2.60
                            10 2.98  14 2.98  15 2.98  14 2.98  15 2.98  10 2.98
  12  0.000  0.000  0.500-   1 2.58   2 2.58   3 2.58   4 2.58   5 2.58   6 2.58   7 2.58   8 2.58
                            13 2.98  14 2.98  15 2.98  15 2.98  14 2.98  13 2.98
  13  0.500  0.000  0.500-   1 2.55   2 2.55   3 2.55   4 2.55   5 2.55   6 2.55   7 2.55   8 2.55
                             9 2.98  12 2.98  16 2.98   9 2.98  16 2.98  12 2.98
  14  0.000  0.500  0.500-   1 2.60   2 2.60   3 2.60   4 2.60   5 2.60   6 2.60   7 2.60   8 2.60
                            11 2.98  12 2.98  16 2.98  11 2.98  12 2.98  16 2.98
  15  0.000  0.000  0.000-   1 2.58   2 2.58   3 2.58   4 2.58   5 2.58   6 2.58   7 2.58   8 2.58
                             9 2.98  11 2.98  12 2.98  12 2.98  11 2.98   9 2.98
  16  0.500  0.500  0.500-   1 2.58   2 2.58   3 2.58   4 2.58   5 2.58   6 2.58   7 2.58   8 2.58
                            10 2.98  13 2.98  14 2.98  10 2.98  13 2.98  14 2.98

  LATTYP: Found a simple cubic cell.
 ALAT       =     5.9545505707
  
  Lattice vectors:
  
 A1 = (   5.9545505707,   0.0000000000,   0.0000000000)
 A2 = (   0.0000000000,   5.9545505707,   0.0000000000)
 A3 = (   0.0000000000,   0.0000000000,   5.9545505707)


Analysis of symmetry for initial positions (statically):
=====================================================================
 Subroutine PRICEL returns:
 Original cell was already a primitive cell.
 

 Routine SETGRP: Setting up the symmetry group for a 
 simple cubic supercell.


 Subroutine GETGRP returns: Found  8 space group operations
 (whereof  8 operations were pure point group operations)
 out of a pool of 48 trial point group operations.


The static configuration has the point symmetry D_2h.


Analysis of symmetry for dynamics (positions and initial velocities):
=====================================================================
 Subroutine PRICEL returns:
 Original cell was already a primitive cell.
 

 Routine SETGRP: Setting up the symmetry group for a 
 simple cubic supercell.


 Subroutine GETGRP returns: Found  8 space group operations
 (whereof  8 operations were pure point group operations)
 out of a pool of 48 trial point group operations.


The dynamic configuration has the point symmetry D_2h.


Analysis of structural, dynamic, and magnetic symmetry:
=====================================================================
 Subroutine PRICEL returns:
 Original cell was already a primitive cell.
 

 Routine SETGRP: Setting up the symmetry group for a 
 simple cubic supercell.


 Subroutine GETGRP returns: Found  8 space group operations
 (whereof  8 operations were pure point group operations)
 out of a pool of 48 trial point group operations.


The magnetic configuration has the point symmetry D_2h.


 Subroutine INISYM returns: Found  8 space group operations
 (whereof  8 operations are pure point group operations),
 and found     1 'primitive' translations



 KPOINTS: k-points                                

Automatic generation of k-mesh.
Space group operators:
 irot       det(A)        alpha          n_x          n_y          n_z        tau_x        tau_y        tau_z
    1     1.000000     0.000000     1.000000     0.000000     0.000000     0.000000     0.000000     0.000000
    2    -1.000000     0.000000     1.000000     0.000000     0.000000     0.000000     0.000000     0.000000
    3     1.000000   180.000000     0.000000     0.000000     1.000000     0.000000     0.000000     0.000000
    4    -1.000000   180.000000     0.000000     0.000000     1.000000     0.000000     0.000000     0.000000
    5     1.000000   180.000000     1.000000     0.000000     0.000000     0.000000     0.000000     0.000000
    6    -1.000000   180.000000     1.000000     0.000000     0.000000     0.000000     0.000000     0.000000
    7     1.000000   180.000000     0.000000     1.000000     0.000000     0.000000     0.000000     0.000000
    8    -1.000000   180.000000     0.000000     1.000000     0.000000     0.000000     0.000000     0.000000
 
 Subroutine IBZKPT returns following result:
 ===========================================
 
 Found     64 irreducible k-points:
 
 Following reciprocal coordinates:
            Coordinates               Weight
  0.000000  0.000000  0.000000      1.000000
  0.142857  0.000000  0.000000      2.000000
  0.285714  0.000000  0.000000      2.000000
  0.428571  0.000000  0.000000      2.000000
  0.000000  0.142857  0.000000      2.000000
  0.142857  0.142857  0.000000      4.000000
  0.285714  0.142857  0.000000      4.000000
  0.428571  0.142857  0.000000      4.000000
  0.000000  0.285714  0.000000      2.000000
  0.142857  0.285714  0.000000      4.000000
  0.285714  0.285714  0.000000      4.000000
  0.428571  0.285714  0.000000      4.000000
  0.000000  0.428571  0.000000      2.000000
  0.142857  0.428571  0.000000      4.000000
  0.285714  0.428571  0.000000      4.000000
  0.428571  0.428571  0.000000      4.000000
  0.000000  0.000000  0.142857      2.000000
  0.142857  0.000000  0.142857      4.000000
  0.285714  0.000000  0.142857      4.000000
  0.428571  0.000000  0.142857      4.000000
  0.000000  0.142857  0.142857      4.000000
  0.142857  0.142857  0.142857      8.000000
  0.285714  0.142857  0.142857      8.000000
  0.428571  0.142857  0.142857      8.000000
  0.000000  0.285714  0.142857      4.000000
  0.142857  0.285714  0.142857      8.000000
  0.285714  0.285714  0.142857      8.000000
  0.428571  0.285714  0.142857      8.000000
  0.000000  0.428571  0.142857      4.000000
  0.142857  0.428571  0.142857      8.000000
  0.285714  0.428571  0.142857      8.000000
  0.428571  0.428571  0.142857      8.000000
  0.000000  0.000000  0.285714      2.000000
  0.142857  0.000000  0.285714      4.000000
  0.285714  0.000000  0.285714      4.000000
  0.428571  0.000000  0.285714      4.000000
  0.000000  0.142857  0.285714      4.000000
  0.142857  0.142857  0.285714      8.000000
  0.285714  0.142857  0.285714      8.000000
  0.428571  0.142857  0.285714      8.000000
  0.000000  0.285714  0.285714      4.000000
  0.142857  0.285714  0.285714      8.000000
  0.285714  0.285714  0.285714      8.000000
  0.428571  0.285714  0.285714      8.000000
  0.000000  0.428571  0.285714      4.000000
  0.142857  0.428571  0.285714      8.000000
  0.285714  0.428571  0.285714      8.000000
  0.428571  0.428571  0.285714      8.000000
  0.000000  0.000000  0.428571      2.000000
  0.142857  0.000000  0.428571      4.000000
  0.285714  0.000000  0.428571      4.000000
  0.428571  0.000000  0.428571      4.000000
  0.000000  0.142857  0.428571      4.000000
  0.142857  0.142857  0.428571      8.000000
  0.285714  0.142857  0.428571      8.000000
  0.428571  0.142857  0.428571      8.000000
  0.000000  0.285714  0.428571      4.000000
  0.142857  0.285714  0.428571      8.000000
  0.285714  0.285714  0.428571      8.000000
  0.428571  0.285714  0.428571      8.000000
  0.000000  0.428571  0.428571      4.000000
  0.142857  0.428571  0.428571      8.000000
  0.285714  0.428571  0.428571      8.000000
  0.428571  0.428571  0.428571      8.000000
 
 Following cartesian coordinates:
            Coordinates               Weight
  0.000000  0.000000  0.000000      1.000000
  0.138190  0.000000  0.000000      2.000000
  0.276379  0.000000  0.000000      2.000000
  0.414569  0.000000  0.000000      2.000000
  0.000000  0.138190  0.000000      2.000000
  0.138190  0.138190  0.000000      4.000000
  0.276379  0.138190  0.000000      4.000000
  0.414569  0.138190  0.000000      4.000000
  0.000000  0.276379  0.000000      2.000000
  0.138190  0.276379  0.000000      4.000000
  0.276379  0.276379  0.000000      4.000000
  0.414569  0.276379  0.000000      4.000000
  0.000000  0.414569  0.000000      2.000000
  0.138190  0.414569  0.000000      4.000000
  0.276379  0.414569  0.000000      4.000000
  0.414569  0.414569  0.000000      4.000000
  0.000000  0.000000  0.138190      2.000000
  0.138190  0.000000  0.138190      4.000000
  0.276379  0.000000  0.138190      4.000000
  0.414569  0.000000  0.138190      4.000000
  0.000000  0.138190  0.138190      4.000000
  0.138190  0.138190  0.138190      8.000000
  0.276379  0.138190  0.138190      8.000000
  0.414569  0.138190  0.138190      8.000000
  0.000000  0.276379  0.138190      4.000000
  0.138190  0.276379  0.138190      8.000000
  0.276379  0.276379  0.138190      8.000000
  0.414569  0.276379  0.138190      8.000000
  0.000000  0.414569  0.138190      4.000000
  0.138190  0.414569  0.138190      8.000000
  0.276379  0.414569  0.138190      8.000000
  0.414569  0.414569  0.138190      8.000000
  0.000000  0.000000  0.276379      2.000000
  0.138190  0.000000  0.276379      4.000000
  0.276379  0.000000  0.276379      4.000000
  0.414569  0.000000  0.276379      4.000000
  0.000000  0.138190  0.276379      4.000000
  0.138190  0.138190  0.276379      8.000000
  0.276379  0.138190  0.276379      8.000000
  0.414569  0.138190  0.276379      8.000000
  0.000000  0.276379  0.276379      4.000000
  0.138190  0.276379  0.276379      8.000000
  0.276379  0.276379  0.276379      8.000000
  0.414569  0.276379  0.276379      8.000000
  0.000000  0.414569  0.276379      4.000000
  0.138190  0.414569  0.276379      8.000000
  0.276379  0.414569  0.276379      8.000000
  0.414569  0.414569  0.276379      8.000000
  0.000000  0.000000  0.414569      2.000000
  0.138190  0.000000  0.414569      4.000000
  0.276379  0.000000  0.414569      4.000000
  0.414569  0.000000  0.414569      4.000000
  0.000000  0.138190  0.414569      4.000000
  0.138190  0.138190  0.414569      8.000000
  0.276379  0.138190  0.414569      8.000000
  0.414569  0.138190  0.414569      8.000000
  0.000000  0.276379  0.414569      4.000000
  0.138190  0.276379  0.414569      8.000000
  0.276379  0.276379  0.414569      8.000000
  0.414569  0.276379  0.414569      8.000000
  0.000000  0.414569  0.414569      4.000000
  0.138190  0.414569  0.414569      8.000000
  0.276379  0.414569  0.414569      8.000000
  0.414569  0.414569  0.414569      8.000000
 


--------------------------------------------------------------------------------------------------------




 Dimension of arrays:
   k-points           NKPTS =     64   k-points in BZ     NKDIM =     64   number of bands    NBANDS=     84
   number of dos      NEDOS =    301   number of ions     NIONS =     16
   non local maximal  LDIM  =      6   non local SUM 2l+1 LMDIM =     18
   total plane-waves  NPLWV =  46656
   max r-space proj   IRMAX =   4056   max aug-charges    IRDMAX=  25126
   dimension x,y,z NGX =    36 NGY =   36 NGZ =   36
   dimension x,y,z NGXF=    72 NGYF=   72 NGZF=   72
   support grid    NGXF=    72 NGYF=   72 NGZF=   72
   ions per type =               8   6   2
   NGX,Y,Z   is equivalent  to a cutoff of  10.05, 10.05, 10.05 a.u.
   NGXF,Y,Z  is equivalent  to a cutoff of  20.10, 20.10, 20.10 a.u.

 SYSTEM =  Testrun for NiMnIn                      
 POSCAR =  Ni2MnIn                                 

 Startparameter for this run:
   NWRITE =      2    write-flag & timer
   PREC   = normal    normal or accurate (medium, high low for compatibility)
   ISTART =      0    job   : 0-new  1-cont  2-samecut
   ICHARG =      2    charge: 1-file 2-atom 10-const
   ISPIN  =      2    spin polarized calculation?
   LNONCOLLINEAR =      F non collinear calculations
   LSORBIT =      F    spin-orbit coupling
   INIWAV =      1    electr: 0-lowe 1-rand  2-diag
   LASPH  =      F    aspherical Exc in radial PAW
   METAGGA=      F    non-selfconsistent MetaGGA calc.

 Electronic Relaxation 1
   ENCUT  =  550.0 eV  40.42 Ry    6.36 a.u.  11.39 11.39 11.39*2*pi/ulx,y,z
   ENINI  =  550.0     initial cutoff
   ENAUG  =  544.6 eV  augmentation charge cutoff
   NELM   =     60;   NELMIN=  2; NELMDL= -5     # of ELM steps 
   EDIFF  = 0.1E-04   stopping-criterion for ELM
   LREAL  =      T    real-space projection
   NLSPLINE    = F    spline interpolate recip. space projectors
   LCOMPAT=      F    compatible to vasp.4.4
   GGA_COMPAT  = T    GGA compatible to vasp.4.4-vasp.4.6
   LMAXPAW     = -100 max onsite density
   LMAXMIX     =    2 max onsite mixed and CHGCAR
   VOSKOWN=      0    Vosko Wilk Nusair interpolation
   ROPT   =   -0.00050  -0.00050  -0.00050
 Ionic relaxation
   EDIFFG = -.1E-01   stopping-criterion for IOM
   NSW    =   1000    number of steps for IOM
   NBLOCK =      1;   KBLOCK =   1000    inner block; outer block 
   IBRION =      2    ionic relax: 0-MD 1-quasi-New 2-CG
   NFREE  =      1    steps in history (QN), initial steepest desc. (CG)
   ISIF   =      2    stress and relaxation
   IWAVPR =     11    prediction:  0-non 1-charg 2-wave 3-comb
   ISYM   =      2    0-nonsym 1-usesym 2-fastsym
   LCORR  =      T    Harris-Foulkes like correction to forces

   POTIM  = 0.5000    time-step for ionic-motion
   TEIN   =    0.0    initial temperature
   TEBEG  =    0.0;   TEEND  =   0.0 temperature during run
   SMASS  =  -3.00    Nose mass-parameter (am)
   estimated Nose-frequenzy (Omega)   =  0.10E-29 period in steps =****** mass=  -0.810E-27a.u.
   SCALEE = 1.0000    scale energy and forces
   NPACO  =    256;   APACO  = 16.0  distance and # of slots for P.C.
   PSTRESS=    0.0 pullay stress

  Mass of Ions in am
   POMASS =  58.69 54.94114.82
  Ionic Valenz
   ZVAL   =  10.00  7.00  3.00
  Atomic Wigner-Seitz radii
   RWIGS  =  -1.00 -1.00 -1.00
  virtual crystal weights 
   VCA    =   1.00  1.00  1.00
   NELECT =     128.0000    total number of electrons
   NUPDOWN=      -1.0000    fix difference up-down

 DOS related values:
   EMIN   =  10.00;   EMAX   =-10.00  energy-range for DOS
   EFERMI =   0.00
   ISMEAR =     0;   SIGMA  =   0.02  broadening in eV -4-tet -1-fermi 0-gaus

 Electronic relaxation 2 (details)
   IALGO  =     68    algorithm
   LDIAG  =      T    sub-space diagonalisation (order eigenvalues)
   LSUBROT=      F    optimize rotation matrix (better conditioning)
   TURBO    =      0    0=normal 1=particle mesh
   IRESTART =      0    0=no restart 2=restart with 2 vectors
   NREBOOT  =      0    no. of reboots
   NMIN     =      0    reboot dimension
   EREF     =   0.00    reference energy to select bands
   IMIX   =      4    mixing-type and parameters
     AMIX     =   0.40;   BMIX     =  1.00
     AMIX_MAG =   1.60;   BMIX_MAG =  1.00
     AMIN     =   0.10
     WC   =   100.;   INIMIX=   1;  MIXPRE=   1;  MAXMIX= -45

 Intra band minimization:
   WEIMIN = 0.0010     energy-eigenvalue tresh-hold
   EBREAK =  0.30E-07  absolut break condition
   DEPER  =   0.30     relativ break condition  

   TIME   =   0.40     timestep for ELM

  volume/ion in A,a.u.               =      13.20        89.05
  Fermi-wavevector in a.u.,A,eV,Ry     =   1.385572  2.618352 26.120606  1.919810
  Thomas-Fermi vector in A             =   2.509970

 Write flags
   LWAVE        =      F    write WAVECAR
   LDOWNSAMPLE  =      F    k-point downsampling of WAVECAR
   LCHARG       =      T    write CHGCAR
   LVTOT        =      F    write LOCPOT, total local potential
   LVHAR        =      F    write LOCPOT, Hartree potential only
   LELF         =      F    write electronic localiz. function (ELF)
   LORBIT       =     11    0 simple, 1 ext, 2 COOP (PROOUT), +10 PAW based schemes


 Dipole corrections
   LMONO  =      F    monopole corrections only (constant potential shift)
   LDIPOL =      F    correct potential (dipole corrections)
   IDIPOL =      0    1-x, 2-y, 3-z, 4-all directions 
   EPSILON=  1.0000000 bulk dielectric constant

 Exchange correlation treatment:
   GGA     =    --    GGA type
   LEXCH   =     8    internal setting for exchange type
   VOSKOWN=      0    Vosko Wilk Nusair interpolation
   LHFCALC =     F    Hartree Fock is set to
   LHFONE  =     F    Hartree Fock one center treatment
   AEXX    =    0.0000 exact exchange contribution

 Linear response parameters
   LEPSILON=     F    determine dielectric tensor
   LRPA    =     F    only Hartree local field effects (RPA)
   LNABLA  =     F    use nabla operator in PAW spheres
   LVEL    =     F    velocity operator in full k-point grid
   LINTERFAST=   F  fast interpolation
   KINTER  =     0    interpolate to denser k-point grid
   CSHIFT  =0.1000    complex shift for real part using Kramers Kronig
   OMEGAMAX=  -1.0    maximum frequency
   DEG_THRESHOLD= 0.2000000E-02 threshold for treating states as degnerate
   RTIME   =   -0.100 relaxation time in fs
  (WPLASMAI=    0.000 imaginary part of plasma frequency in eV, 0.658/RTIME)
   DFIELD  = 0.0000000 0.0000000 0.0000000 field for delta impulse in time

 Orbital magnetization related:
   ORBITALMAG=     F  switch on orbital magnetization
   LCHIMAG   =     F  perturbation theory with respect to B field
   DQ        =  0.001000  dq finite difference perturbation B field
   LLRAUG    =     F  two centre corrections for induced B field



--------------------------------------------------------------------------------------------------------


 conjugate gradient relaxation of ions
 charge density and potential will be updated during run
 spin polarized calculation
 RMM-DIIS sequential band-by-band and
  variant of blocked Davidson during initial phase
 perform sub-space diagonalisation
    before iterative eigenvector-optimisation
 modified Broyden-mixing scheme, WC =      100.0
 initial mixing is a Kerker type mixing with AMIX =  0.4000 and BMIX =      1.0000
 Hartree-type preconditioning will be used
 using additional bands           20
 real space projection scheme for non local part
 use partial core corrections
 calculate Harris-corrections to forces   (improved forces if not selfconsistent)
 use gradient corrections 
 use of overlap-Matrix (Vanderbilt PP)
 Gauss-broadening in eV      SIGMA  =   0.02


--------------------------------------------------------------------------------------------------------


  energy-cutoff  :      550.00
  volume of cell :      211.13
      direct lattice vectors                 reciprocal lattice vectors
     5.954550571  0.000000000  0.000000000     0.167938787  0.000000000  0.000000000
     0.000000000  5.954550571  0.000000000     0.000000000  0.167938787  0.000000000
     0.000000000  0.000000000  5.954550571     0.000000000  0.000000000  0.167938787

  length of vectors
     5.954550571  5.954550571  5.954550571     0.167938787  0.167938787  0.167938787



 k-points in units of 2pi/SCALE and weight: k-points                                
   0.00000000  0.00000000  0.00000000       0.003
   0.13818963  0.00000000  0.00000000       0.006
   0.27637926  0.00000000  0.00000000       0.006
   0.41456889  0.00000000  0.00000000       0.006
   0.00000000  0.13818963  0.00000000       0.006
   0.13818963  0.13818963  0.00000000       0.012
   0.27637926  0.13818963  0.00000000       0.012
   0.41456889  0.13818963  0.00000000       0.012
   0.00000000  0.27637926  0.00000000       0.006
   0.13818963  0.27637926  0.00000000       0.012
   0.27637926  0.27637926  0.00000000       0.012
   0.41456889  0.27637926  0.00000000       0.012
   0.00000000  0.41456889  0.00000000       0.006
   0.13818963  0.41456889  0.00000000       0.012
   0.27637926  0.41456889  0.00000000       0.012
   0.41456889  0.41456889  0.00000000       0.012
   0.00000000  0.00000000  0.13818963       0.006
   0.13818963  0.00000000  0.13818963       0.012
   0.27637926  0.00000000  0.13818963       0.012
   0.41456889  0.00000000  0.13818963       0.012
   0.00000000  0.13818963  0.13818963       0.012
   0.13818963  0.13818963  0.13818963       0.023
   0.27637926  0.13818963  0.13818963       0.023
   0.41456889  0.13818963  0.13818963       0.023
   0.00000000  0.27637926  0.13818963       0.012
   0.13818963  0.27637926  0.13818963       0.023
   0.27637926  0.27637926  0.13818963       0.023
   0.41456889  0.27637926  0.13818963       0.023
   0.00000000  0.41456889  0.13818963       0.012
   0.13818963  0.41456889  0.13818963       0.023
   0.27637926  0.41456889  0.13818963       0.023
   0.41456889  0.41456889  0.13818963       0.023
   0.00000000  0.00000000  0.27637926       0.006
   0.13818963  0.00000000  0.27637926       0.012
   0.27637926  0.00000000  0.27637926       0.012
   0.41456889  0.00000000  0.27637926       0.012
   0.00000000  0.13818963  0.27637926       0.012
   0.13818963  0.13818963  0.27637926       0.023
   0.27637926  0.13818963  0.27637926       0.023
   0.41456889  0.13818963  0.27637926       0.023
   0.00000000  0.27637926  0.27637926       0.012
   0.13818963  0.27637926  0.27637926       0.023
   0.27637926  0.27637926  0.27637926       0.023
   0.41456889  0.27637926  0.27637926       0.023
   0.00000000  0.41456889  0.27637926       0.012
   0.13818963  0.41456889  0.27637926       0.023
   0.27637926  0.41456889  0.27637926       0.023
   0.41456889  0.41456889  0.27637926       0.023
   0.00000000  0.00000000  0.41456889       0.006
   0.13818963  0.00000000  0.41456889       0.012
   0.27637926  0.00000000  0.41456889       0.012
   0.41456889  0.00000000  0.41456889       0.012
   0.00000000  0.13818963  0.41456889       0.012
   0.13818963  0.13818963  0.41456889       0.023
   0.27637926  0.13818963  0.41456889       0.023
   0.41456889  0.13818963  0.41456889       0.023
   0.00000000  0.27637926  0.41456889       0.012
   0.13818963  0.27637926  0.41456889       0.023
   0.27637926  0.27637926  0.41456889       0.023
   0.41456889  0.27637926  0.41456889       0.023
   0.00000000  0.41456889  0.41456889       0.012
   0.13818963  0.41456889  0.41456889       0.023
   0.27637926  0.41456889  0.41456889       0.023
   0.41456889  0.41456889  0.41456889       0.023

 k-points in reciprocal lattice and weights: k-points                                
   0.00000000  0.00000000  0.00000000       0.003
   0.14285714  0.00000000  0.00000000       0.006
   0.28571429  0.00000000  0.00000000       0.006
   0.42857143  0.00000000  0.00000000       0.006
   0.00000000  0.14285714  0.00000000       0.006
   0.14285714  0.14285714  0.00000000       0.012
   0.28571429  0.14285714  0.00000000       0.012
   0.42857143  0.14285714  0.00000000       0.012
   0.00000000  0.28571429  0.00000000       0.006
   0.14285714  0.28571429  0.00000000       0.012
   0.28571429  0.28571429  0.00000000       0.012
   0.42857143  0.28571429  0.00000000       0.012
   0.00000000  0.42857143  0.00000000       0.006
   0.14285714  0.42857143  0.00000000       0.012
   0.28571429  0.42857143  0.00000000       0.012
   0.42857143  0.42857143  0.00000000       0.012
   0.00000000  0.00000000  0.14285714       0.006
   0.14285714  0.00000000  0.14285714       0.012
   0.28571429  0.00000000  0.14285714       0.012
   0.42857143  0.00000000  0.14285714       0.012
   0.00000000  0.14285714  0.14285714       0.012
   0.14285714  0.14285714  0.14285714       0.023
   0.28571429  0.14285714  0.14285714       0.023
   0.42857143  0.14285714  0.14285714       0.023
   0.00000000  0.28571429  0.14285714       0.012
   0.14285714  0.28571429  0.14285714       0.023
   0.28571429  0.28571429  0.14285714       0.023
   0.42857143  0.28571429  0.14285714       0.023
   0.00000000  0.42857143  0.14285714       0.012
   0.14285714  0.42857143  0.14285714       0.023
   0.28571429  0.42857143  0.14285714       0.023
   0.42857143  0.42857143  0.14285714       0.023
   0.00000000  0.00000000  0.28571429       0.006
   0.14285714  0.00000000  0.28571429       0.012
   0.28571429  0.00000000  0.28571429       0.012
   0.42857143  0.00000000  0.28571429       0.012
   0.00000000  0.14285714  0.28571429       0.012
   0.14285714  0.14285714  0.28571429       0.023
   0.28571429  0.14285714  0.28571429       0.023
   0.42857143  0.14285714  0.28571429       0.023
   0.00000000  0.28571429  0.28571429       0.012
   0.14285714  0.28571429  0.28571429       0.023
   0.28571429  0.28571429  0.28571429       0.023
   0.42857143  0.28571429  0.28571429       0.023
   0.00000000  0.42857143  0.28571429       0.012
   0.14285714  0.42857143  0.28571429       0.023
   0.28571429  0.42857143  0.28571429       0.023
   0.42857143  0.42857143  0.28571429       0.023
   0.00000000  0.00000000  0.42857143       0.006
   0.14285714  0.00000000  0.42857143       0.012
   0.28571429  0.00000000  0.42857143       0.012
   0.42857143  0.00000000  0.42857143       0.012
   0.00000000  0.14285714  0.42857143       0.012
   0.14285714  0.14285714  0.42857143       0.023
   0.28571429  0.14285714  0.42857143       0.023
   0.42857143  0.14285714  0.42857143       0.023
   0.00000000  0.28571429  0.42857143       0.012
   0.14285714  0.28571429  0.42857143       0.023
   0.28571429  0.28571429  0.42857143       0.023
   0.42857143  0.28571429  0.42857143       0.023
   0.00000000  0.42857143  0.42857143       0.012
   0.14285714  0.42857143  0.42857143       0.023
   0.28571429  0.42857143  0.42857143       0.023
   0.42857143  0.42857143  0.42857143       0.023

 position of ions in fractional coordinates (direct lattice) 
   0.25373043  0.24626941  0.24997211
   0.74626957  0.24626941  0.24997211
   0.25373043  0.75373059  0.24997211
   0.74626957  0.75373059  0.24997211
   0.25373043  0.24626941  0.75002789
   0.74626957  0.24626941  0.75002789
   0.25373043  0.75373059  0.75002789
   0.74626957  0.75373059  0.75002789
   0.50000000  0.00000000  0.00000000
   0.50000000  0.50000000  0.00000000
   0.00000000  0.50000000  0.00000000
   0.00000000  0.00000000  0.50000000
   0.50000000  0.00000000  0.50000000
   0.00000000  0.50000000  0.50000000
   0.00000000  0.00000000  0.00000000
   0.50000000  0.50000000  0.50000000

 position of ions in cartesian coordinates  (Angst):
   1.51085065  1.46642366  1.48847158
   4.44369992  1.46642366  1.48847158
   1.51085065  4.48812692  1.48847158
   4.44369992  4.48812692  1.48847158
   1.51085065  1.46642366  4.46607899
   4.44369992  1.46642366  4.46607899
   1.51085065  4.48812692  4.46607899
   4.44369992  4.48812692  4.46607899
   2.97727529  0.00000000  0.00000000
   2.97727529  2.97727529  0.00000000
   0.00000000  2.97727529  0.00000000
   0.00000000  0.00000000  2.97727529
   2.97727529  0.00000000  2.97727529
   0.00000000  2.97727529  2.97727529
   0.00000000  0.00000000  0.00000000
   2.97727529  2.97727529  2.97727529



--------------------------------------------------------------------------------------------------------


 k-point  1 :   0.0000 0.0000 0.0000  plane waves:    6187
 k-point  2 :   0.1429 0.0000 0.0000  plane waves:    6187
 k-point  3 :   0.2857 0.0000 0.0000  plane waves:    6167
 k-point  4 :   0.4286 0.0000 0.0000  plane waves:    6190
 k-point  5 :   0.0000 0.1429 0.0000  plane waves:    6187
 k-point  6 :   0.1429 0.1429 0.0000  plane waves:    6194
 k-point  7 :   0.2857 0.1429 0.0000  plane waves:    6184
 k-point  8 :   0.4286 0.1429 0.0000  plane waves:    6199
 k-point  9 :   0.0000 0.2857 0.0000  plane waves:    6167
 k-point 10 :   0.1429 0.2857 0.0000  plane waves:    6184
 k-point 11 :   0.2857 0.2857 0.0000  plane waves:    6194
 k-point 12 :   0.4286 0.2857 0.0000  plane waves:    6179
 k-point 13 :   0.0000 0.4286 0.0000  plane waves:    6190
 k-point 14 :   0.1429 0.4286 0.0000  plane waves:    6199
 k-point 15 :   0.2857 0.4286 0.0000  plane waves:    6179
 k-point 16 :   0.4286 0.4286 0.0000  plane waves:    6174
 k-point 17 :   0.0000 0.0000 0.1429  plane waves:    6187
 k-point 18 :   0.1429 0.0000 0.1429  plane waves:    6194
 k-point 19 :   0.2857 0.0000 0.1429  plane waves:    6184
 k-point 20 :   0.4286 0.0000 0.1429  plane waves:    6199
 k-point 21 :   0.0000 0.1429 0.1429  plane waves:    6194
 k-point 22 :   0.1429 0.1429 0.1429  plane waves:    6193
 k-point 23 :   0.2857 0.1429 0.1429  plane waves:    6186
 k-point 24 :   0.4286 0.1429 0.1429  plane waves:    6176
 k-point 25 :   0.0000 0.2857 0.1429  plane waves:    6184
 k-point 26 :   0.1429 0.2857 0.1429  plane waves:    6186
 k-point 27 :   0.2857 0.2857 0.1429  plane waves:    6179
 k-point 28 :   0.4286 0.2857 0.1429  plane waves:    6181
 k-point 29 :   0.0000 0.4286 0.1429  plane waves:    6199
 k-point 30 :   0.1429 0.4286 0.1429  plane waves:    6176
 k-point 31 :   0.2857 0.4286 0.1429  plane waves:    6181
 k-point 32 :   0.4286 0.4286 0.1429  plane waves:    6175
 k-point 33 :   0.0000 0.0000 0.2857  plane waves:    6167
 k-point 34 :   0.1429 0.0000 0.2857  plane waves:    6184
 k-point 35 :   0.2857 0.0000 0.2857  plane waves:    6194
 k-point 36 :   0.4286 0.0000 0.2857  plane waves:    6179
 k-point 37 :   0.0000 0.1429 0.2857  plane waves:    6184
 k-point 38 :   0.1429 0.1429 0.2857  plane waves:    6186
 k-point 39 :   0.2857 0.1429 0.2857  plane waves:    6179
 k-point 40 :   0.4286 0.1429 0.2857  plane waves:    6181
 k-point 41 :   0.0000 0.2857 0.2857  plane waves:    6194
 k-point 42 :   0.1429 0.2857 0.2857  plane waves:    6179
 k-point 43 :   0.2857 0.2857 0.2857  plane waves:    6181
 k-point 44 :   0.4286 0.2857 0.2857  plane waves:    6196
 k-point 45 :   0.0000 0.4286 0.2857  plane waves:    6179
 k-point 46 :   0.1429 0.4286 0.2857  plane waves:    6181
 k-point 47 :   0.2857 0.4286 0.2857  plane waves:    6196
 k-point 48 :   0.4286 0.4286 0.2857  plane waves:    6164
 k-point 49 :   0.0000 0.0000 0.4286  plane waves:    6190
 k-point 50 :   0.1429 0.0000 0.4286  plane waves:    6199
 k-point 51 :   0.2857 0.0000 0.4286  plane waves:    6179
 k-point 52 :   0.4286 0.0000 0.4286  plane waves:    6174
 k-point 53 :   0.0000 0.1429 0.4286  plane waves:    6199
 k-point 54 :   0.1429 0.1429 0.4286  plane waves:    6176
 k-point 55 :   0.2857 0.1429 0.4286  plane waves:    6181
 k-point 56 :   0.4286 0.1429 0.4286  plane waves:    6175
 k-point 57 :   0.0000 0.2857 0.4286  plane waves:    6179
 k-point 58 :   0.1429 0.2857 0.4286  plane waves:    6181
 k-point 59 :   0.2857 0.2857 0.4286  plane waves:    6196
 k-point 60 :   0.4286 0.2857 0.4286  plane waves:    6164
 k-point 61 :   0.0000 0.4286 0.4286  plane waves:    6174
 k-point 62 :   0.1429 0.4286 0.4286  plane waves:    6175
 k-point 63 :   0.2857 0.4286 0.4286  plane waves:    6164
 k-point 64 :   0.4286 0.4286 0.4286  plane waves:    6137

 maximum and minimum number of plane-waves per node :      6199     6137

 maximum number of plane-waves:      6199
 maximum index in each direction: 
   IXMAX=   11   IYMAX=   11   IZMAX=   11
   IXMIN=  -11   IYMIN=  -11   IZMIN=  -11


 serial   3D FFT for wavefunctions
 parallel 3D FFT for charge:
    minimum data exchange during FFTs selected (reduces bandwidth)


 total amount of memory used by VASP MPI-rank0   138197. kBytes
=======================================================================

   base      :      30000. kBytes
   nonlr-proj:       6789. kBytes
   fftplans  :       1269. kBytes
   grid      :       6573. kBytes
   one-center:        497. kBytes
   wavefun   :      93069. kBytes

     INWAV:  cpu time    0.0000: real time    0.0000
 Broyden mixing: mesh for mixing (old mesh)
   NGX = 23   NGY = 23   NGZ = 23
  (NGX  = 72   NGY  = 72   NGZ  = 72)
  gives a total of  12167 points

 initial charge density was supplied:
 charge density of overlapping atoms calculated
 number of electron     128.0000000 magnetization       0.8000000
 keeping initial charge density in first step


--------------------------------------------------------------------------------------------------------


 Maximum index for non-local projection operator         3887
 Maximum index for augmentation-charges         2111 (set IRDMAX)


--------------------------------------------------------------------------------------------------------


 First call to EWALD:  gamma=   0.298
 Maximum number of real-space cells 3x 3x 3
 Maximum number of reciprocal cells 3x 3x 3

    FEWALD:  cpu time    0.0020: real time    0.0020


--------------------------------------- Iteration      1(   1)  ---------------------------------------


    POTLOK:  cpu time    0.0981: real time    0.1068
    SETDIJ:  cpu time    0.0356: real time    0.0356
     EDDAV:  cpu time   38.2916: real time   38.3427
       DOS:  cpu time    0.0055: real time    0.0055
    --------------------------------------------
      LOOP:  cpu time   38.4308: real time   38.4906

 eigenvalue-minimisations  : 21504
 total energy-change (2. order) : 0.1067621E+04  (-0.5422868E+04)
 number of electron     128.0000000 magnetization       0.8000000
 augmentation part      128.0000000 magnetization       0.8000000

 Free energy of the ion-electron system (eV)
  ---------------------------------------------------
  alpha Z        PSCENC =       532.96709039
  Ewald energy   TEWEN  =     -9409.08673760
  -Hartree energ DENC   =     -3023.86286784
  -exchange      EXHF   =         0.00000000
  -V(xc)+E(xc)   XCENC  =        78.02232464
  PAW double counting   =     10320.96726947   -10647.99417394
  entropy T*S    EENTRO =        -0.00078389
  eigenvalues    EBANDS =      1987.14705826
  atomic energy  EATOM  =     11229.46195210
  Solvation  Ediel_sol  =         0.00000000
  ---------------------------------------------------
  free energy    TOTEN  =      1067.62113158 eV

  energy without entropy =     1067.62191547  energy(sigma->0) =     1067.62152353


--------------------------------------------------------------------------------------------------------




--------------------------------------- Iteration      1(   2)  ---------------------------------------


     EDDAV:  cpu time   37.2920: real time   37.3252
       DOS:  cpu time    0.0056: real time    0.0056
    --------------------------------------------
      LOOP:  cpu time   37.2977: real time   37.3309

 eigenvalue-minimisations  : 21504
 total energy-change (2. order) :-0.1066676E+04  (-0.1034378E+04)
 number of electron     128.0000000 magnetization       0.8000000
 augmentation part      128.0000000 magnetization       0.8000000

 Free energy of the ion-electron system (eV)
  ---------------------------------------------------
  alpha Z        PSCENC =       532.96709039
  Ewald energy   TEWEN  =     -9409.08673760
  -Hartree energ DENC   =     -3023.86286784
  -exchange      EXHF   =         0.00000000
  -V(xc)+E(xc)   XCENC  =        78.02232464
  PAW double counting   =     10320.96726947   -10647.99417394
  entropy T*S    EENTRO =        -0.00261152
  eigenvalues    EBANDS =       920.47290916
  atomic energy  EATOM  =     11229.46195210
  Solvation  Ediel_sol  =         0.00000000
  ---------------------------------------------------
  free energy    TOTEN  =         0.94515485 eV

  energy without entropy =        0.94776637  energy(sigma->0) =        0.94646061


--------------------------------------------------------------------------------------------------------




--------------------------------------- Iteration      1(   3)  ---------------------------------------


     EDDAV:  cpu time   41.1339: real time   41.1684
       DOS:  cpu time    0.0059: real time    0.0059
    --------------------------------------------
      LOOP:  cpu time   41.1399: real time   41.1744

 eigenvalue-minimisations  : 24264
 total energy-change (2. order) :-0.1113671E+03  (-0.1001445E+03)
 number of electron     128.0000000 magnetization       0.8000000
 augmentation part      128.0000000 magnetization       0.8000000

 Free energy of the ion-electron system (eV)
  ---------------------------------------------------
  alpha Z        PSCENC =       532.96709039
  Ewald energy   TEWEN  =     -9409.08673760
  -Hartree energ DENC   =     -3023.86286784
  -exchange      EXHF   =         0.00000000
  -V(xc)+E(xc)   XCENC  =        78.02232464
  PAW double counting   =     10320.96726947   -10647.99417394
  entropy T*S    EENTRO =        -0.00236676
  eigenvalues    EBANDS =       809.10551689
  atomic energy  EATOM  =     11229.46195210
  Solvation  Ediel_sol  =         0.00000000
  ---------------------------------------------------
  free energy    TOTEN  =      -110.42199265 eV

  energy without entropy =     -110.41962589  energy(sigma->0) =     -110.42080927


--------------------------------------------------------------------------------------------------------




--------------------------------------- Iteration      1(   4)  ---------------------------------------


     EDDAV:  cpu time   51.8299: real time   51.8710
       DOS:  cpu time    0.0059: real time    0.0059
    --------------------------------------------
      LOOP:  cpu time   51.8358: real time   51.8769

 eigenvalue-minimisations  : 32244
 total energy-change (2. order) :-0.6600714E+01  (-0.6283007E+01)
 number of electron     128.0000000 magnetization       0.8000000
 augmentation part      128.0000000 magnetization       0.8000000

 Free energy of the ion-electron system (eV)
  ---------------------------------------------------
  alpha Z        PSCENC =       532.96709039
  Ewald energy   TEWEN  =     -9409.08673760
  -Hartree energ DENC   =     -3023.86286784
  -exchange      EXHF   =         0.00000000
  -V(xc)+E(xc)   XCENC  =        78.02232464
  PAW double counting   =     10320.96726947   -10647.99417394
  entropy T*S    EENTRO =        -0.00199369
  eigenvalues    EBANDS =       802.50442992
  atomic energy  EATOM  =     11229.46195210
  Solvation  Ediel_sol  =         0.00000000
  ---------------------------------------------------
  free energy    TOTEN  =      -117.02270655 eV

  energy without entropy =     -117.02071287  energy(sigma->0) =     -117.02170971


--------------------------------------------------------------------------------------------------------




--------------------------------------- Iteration      1(   5)  ---------------------------------------


     EDDAV:  cpu time   51.1686: real time   51.2081
       DOS:  cpu time    0.0055: real time    0.0055
    CHARGE:  cpu time    1.0640: real time    1.0646
    MIXING:  cpu time    0.0017: real time    0.0017
    --------------------------------------------
      LOOP:  cpu time   52.2398: real time   52.2799

 eigenvalue-minimisations  : 31704
 total energy-change (2. order) :-0.2144289E+00  (-0.2135810E+00)
 number of electron     128.0000026 magnetization       0.3146170
 augmentation part       60.5907176 magnetization       0.2884073

 Broyden mixing:
  rms(total) = 0.34299E+01    rms(broyden)= 0.34299E+01
  rms(prec ) = 0.53945E+01
  weight for this iteration     100.00

 Free energy of the ion-electron system (eV)
  ---------------------------------------------------
  alpha Z        PSCENC =       532.96709039
  Ewald energy   TEWEN  =     -9409.08673760
  -Hartree energ DENC   =     -3023.86286784
  -exchange      EXHF   =         0.00000000
  -V(xc)+E(xc)   XCENC  =        78.02232464
  PAW double counting   =     10320.96726947   -10647.99417394
  entropy T*S    EENTRO =        -0.00198210
  eigenvalues    EBANDS =       802.28998945
  atomic energy  EATOM  =     11229.46195210
  Solvation  Ediel_sol  =         0.00000000
  ---------------------------------------------------
  free energy    TOTEN  =      -117.23713543 eV

  energy without entropy =     -117.23515333  energy(sigma->0) =     -117.23614438


--------------------------------------------------------------------------------------------------------




--------------------------------------- Iteration      1(   6)  ---------------------------------------


    POTLOK:  cpu time    0.0966: real time    0.0972
    SETDIJ:  cpu time    0.0351: real time    0.0351
    EDDIAG:  cpu time    5.2117: real time    5.2156
  RMM-DIIS:  cpu time   16.9029: real time   16.9144
    ORTHCH:  cpu time    1.0008: real time    1.0016
       DOS:  cpu time    0.0057: real time    0.0057
    CHARGE:  cpu time    1.0698: real time    1.0704
    MIXING:  cpu time    0.0017: real time    0.0017
    --------------------------------------------
      LOOP:  cpu time   24.3243: real time   24.3416

 eigenvalue-minimisations  : 21504
 total energy-change (2. order) : 0.4922688E+01  (-0.1808396E+02)
 number of electron     128.0000097 magnetization       0.2898114
 augmentation part       69.3420972 magnetization       0.2236945

 Broyden mixing:
  rms(total) = 0.52843E+01    rms(broyden)= 0.52841E+01
  rms(prec ) = 0.73809E+01
  weight for this iteration     100.00

 eigenvalues of (default mixing * dielectric matrix)
  average eigenvalue GAMMA=   0.1938
  0.1938

 Free energy of the ion-electron system (eV)
  ---------------------------------------------------
  alpha Z        PSCENC =       532.96709039
  Ewald energy   TEWEN  =     -9409.08673760
  -Hartree energ DENC   =     -2793.44455694
  -exchange      EXHF   =         0.00000000
  -V(xc)+E(xc)   XCENC  =        66.35899077
  PAW double counting   =     11134.29565080   -11428.28943350
  entropy T*S    EENTRO =        -0.00590318
  eigenvalues    EBANDS =       555.42849986
  atomic energy  EATOM  =     11229.46195210
  Solvation  Ediel_sol  =         0.00000000
  ---------------------------------------------------
  free energy    TOTEN  =      -112.31444729 eV

  energy without entropy =     -112.30854412  energy(sigma->0) =     -112.31149570


--------------------------------------------------------------------------------------------------------




--------------------------------------- Iteration      1(   7)  ---------------------------------------


    POTLOK:  cpu time    0.0965: real time    0.0966
    SETDIJ:  cpu time    0.0355: real time    0.0355
    EDDIAG:  cpu time    5.2514: real time    5.2554
  RMM-DIIS:  cpu time   16.8130: real time   16.8248
    ORTHCH:  cpu time    0.9976: real time    0.9983
       DOS:  cpu time    0.0057: real time    0.0057
    CHARGE:  cpu time    1.0743: real time    1.0749
    MIXING:  cpu time    0.0017: real time    0.0017
    --------------------------------------------
      LOOP:  cpu time   24.2758: real time   24.2930

 eigenvalue-minimisations  : 21506
 total energy-change (2. order) : 0.1340358E+01  (-0.3769751E+01)
 number of electron     128.0000031 magnetization       0.1953303
 augmentation part       70.7746842 magnetization       0.1810006

 Broyden mixing:
  rms(total) = 0.32776E+01    rms(broyden)= 0.32774E+01
  rms(prec ) = 0.54540E+01
  weight for this iteration     100.00

 eigenvalues of (default mixing * dielectric matrix)
  average eigenvalue GAMMA=   0.4164
  0.4164  0.4164

 Free energy of the ion-electron system (eV)
  ---------------------------------------------------
  alpha Z        PSCENC =       532.96709039
  Ewald energy   TEWEN  =     -9409.08673760
  -Hartree energ DENC   =     -2767.38175640
  -exchange      EXHF   =         0.00000000
  -V(xc)+E(xc)   XCENC  =        65.78756928
  PAW double counting   =     11375.09666885   -11670.42021790
  entropy T*S    EENTRO =        -0.00160812
  eigenvalues    EBANDS =       532.60295000
  atomic energy  EATOM  =     11229.46195210
  Solvation  Ediel_sol  =         0.00000000
  ---------------------------------------------------
  free energy    TOTEN  =      -110.97408941 eV

  energy without entropy =     -110.97248129  energy(sigma->0) =     -110.97328535


--------------------------------------------------------------------------------------------------------




--------------------------------------- Iteration      1(   8)  ---------------------------------------


    POTLOK:  cpu time    0.0976: real time    0.0977
    SETDIJ:  cpu time    0.0351: real time    0.0351
    EDDIAG:  cpu time    5.2652: real time    5.2692
  RMM-DIIS:  cpu time   16.8310: real time   16.8457
    ORTHCH:  cpu time    1.0136: real time    1.0144
       DOS:  cpu time    0.0061: real time    0.0061
    CHARGE:  cpu time    1.0789: real time    1.0795
    MIXING:  cpu time    0.0018: real time    0.0018
    --------------------------------------------
      LOOP:  cpu time   24.3293: real time   24.3495

 eigenvalue-minimisations  : 21505
 total energy-change (2. order) : 0.7697430E+01  (-0.2176241E+01)
 number of electron     128.0000065 magnetization       0.1012238
 augmentation part       67.4566403 magnetization       0.0732953

 Broyden mixing:
  rms(total) = 0.13590E+01    rms(broyden)= 0.13589E+01
  rms(prec ) = 0.21906E+01
  weight for this iteration     100.00

 eigenvalues of (default mixing * dielectric matrix)
  average eigenvalue GAMMA=   0.5183
  0.6718  0.6718  0.2111

 Free energy of the ion-electron system (eV)
  ---------------------------------------------------
  alpha Z        PSCENC =       532.96709039
  Ewald energy   TEWEN  =     -9409.08673760
  -Hartree energ DENC   =     -2837.50823617
  -exchange      EXHF   =         0.00000000
  -V(xc)+E(xc)   XCENC  =        71.35048136
  PAW double counting   =     11831.71975310   -12157.91723007
  entropy T*S    EENTRO =        -0.00248634
  eigenvalues    EBANDS =       635.73875400
  atomic energy  EATOM  =     11229.46195210
  Solvation  Ediel_sol  =         0.00000000
  ---------------------------------------------------
  free energy    TOTEN  =      -103.27665924 eV

  energy without entropy =     -103.27417290  energy(sigma->0) =     -103.27541607


--------------------------------------------------------------------------------------------------------




--------------------------------------- Iteration      1(   9)  ---------------------------------------


    POTLOK:  cpu time    0.0972: real time    0.0979
    SETDIJ:  cpu time    0.0349: real time    0.0349
    EDDIAG:  cpu time    5.2924: real time    5.2974
  RMM-DIIS:  cpu time   16.9098: real time   16.9339
    ORTHCH:  cpu time    1.0056: real time    1.0064
       DOS:  cpu time    0.0057: real time    0.0058
    CHARGE:  cpu time    1.0842: real time    1.0849
    MIXING:  cpu time    0.0018: real time    0.0018
    --------------------------------------------
      LOOP:  cpu time   24.4317: real time   24.4630

 eigenvalue-minimisations  : 21634
 total energy-change (2. order) : 0.3616466E+00  (-0.1297895E+00)
 number of electron     128.0000056 magnetization       0.0180868
 augmentation part       67.6991259 magnetization       0.0225683

 Broyden mixing:
  rms(total) = 0.70512E+00    rms(broyden)= 0.70507E+00
  rms(prec ) = 0.96319E+00
  weight for this iteration     100.00

 eigenvalues of (default mixing * dielectric matrix)
  average eigenvalue GAMMA=   0.6905
  1.2570  0.7995  0.5036  0.2020

 Free energy of the ion-electron system (eV)
  ---------------------------------------------------
  alpha Z        PSCENC =       532.96709039
  Ewald energy   TEWEN  =     -9409.08673760
  -Hartree energ DENC   =     -2830.49088073
  -exchange      EXHF   =         0.00000000
  -V(xc)+E(xc)   XCENC  =        73.17806127
  PAW double counting   =     12179.81451029   -12512.69642780
  entropy T*S    EENTRO =        -0.00164693
  eigenvalues    EBANDS =       633.93906637
  atomic energy  EATOM  =     11229.46195210
  Solvation  Ediel_sol  =         0.00000000
  ---------------------------------------------------
  free energy    TOTEN  =      -102.91501264 eV

  energy without entropy =     -102.91336571  energy(sigma->0) =     -102.91418918


--------------------------------------------------------------------------------------------------------




--------------------------------------- Iteration      1(  10)  ---------------------------------------


    POTLOK:  cpu time    0.0964: real time    0.0965
    SETDIJ:  cpu time    0.0349: real time    0.0349
    EDDIAG:  cpu time    5.3155: real time    5.3207
  RMM-DIIS:  cpu time   16.9240: real time   16.9416
    ORTHCH:  cpu time    1.0049: real time    1.0057
       DOS:  cpu time    0.0055: real time    0.0055
    CHARGE:  cpu time    1.0853: real time    1.0860
    MIXING:  cpu time    0.0020: real time    0.0019
    --------------------------------------------
      LOOP:  cpu time   24.4684: real time   24.4929

 eigenvalue-minimisations  : 21575
 total energy-change (2. order) :-0.9939073E-01  (-0.7250017E-01)
 number of electron     128.0000054 magnetization      -0.0126733
 augmentation part       67.9554914 magnetization      -0.0452202

 Broyden mixing:
  rms(total) = 0.53055E+00    rms(broyden)= 0.53055E+00
  rms(prec ) = 0.83942E+00
  weight for this iteration     100.00

 eigenvalues of (default mixing * dielectric matrix)
  average eigenvalue GAMMA=   0.7384
  1.7775  0.7641  0.5779  0.2028  0.3700

 Free energy of the ion-electron system (eV)
  ---------------------------------------------------
  alpha Z        PSCENC =       532.96709039
  Ewald energy   TEWEN  =     -9409.08673760
  -Hartree energ DENC   =     -2822.44531168
  -exchange      EXHF   =         0.00000000
  -V(xc)+E(xc)   XCENC  =        75.20379258
  PAW double counting   =     12563.14214726   -12901.50302315
  entropy T*S    EENTRO =        -0.00121775
  eigenvalues    EBANDS =       629.24690447
  atomic energy  EATOM  =     11229.46195210
  Solvation  Ediel_sol  =         0.00000000
  ---------------------------------------------------
  free energy    TOTEN  =      -103.01440337 eV

  energy without entropy =     -103.01318562  energy(sigma->0) =     -103.01379450


--------------------------------------------------------------------------------------------------------




--------------------------------------- Iteration      1(  11)  ---------------------------------------


    POTLOK:  cpu time    0.0964: real time    0.0966
    SETDIJ:  cpu time    0.0350: real time    0.0351
    EDDIAG:  cpu time    5.3275: real time    5.3326
  RMM-DIIS:  cpu time   17.1170: real time   17.1338
    ORTHCH:  cpu time    1.0154: real time    1.0163
       DOS:  cpu time    0.0057: real time    0.0058
    CHARGE:  cpu time    1.0884: real time    1.0891
    MIXING:  cpu time    0.0020: real time    0.0020
    --------------------------------------------
      LOOP:  cpu time   24.6876: real time   24.7112

 eigenvalue-minimisations  : 21730
 total energy-change (2. order) : 0.1355551E+00  (-0.5171378E-01)
 number of electron     128.0000059 magnetization      -0.0205027
 augmentation part       67.5678942 magnetization      -0.0062173

 Broyden mixing:
  rms(total) = 0.25590E+00    rms(broyden)= 0.25587E+00
  rms(prec ) = 0.31491E+00
  weight for this iteration     100.00

 eigenvalues of (default mixing * dielectric matrix)
  average eigenvalue GAMMA=   0.7643
  2.0586  0.7447  0.7447  0.5293  0.2042  0.3044

 Free energy of the ion-electron system (eV)
  ---------------------------------------------------
  alpha Z        PSCENC =       532.96709039
  Ewald energy   TEWEN  =     -9409.08673760
  -Hartree energ DENC   =     -2825.48769805
  -exchange      EXHF   =         0.00000000
  -V(xc)+E(xc)   XCENC  =        76.38671627
  PAW double counting   =     12795.51751338   -13138.67429092
  entropy T*S    EENTRO =        -0.00151050
  eigenvalues    EBANDS =       636.03811672
  atomic energy  EATOM  =     11229.46195210
  Solvation  Ediel_sol  =         0.00000000
  ---------------------------------------------------
  free energy    TOTEN  =      -102.87884823 eV

  energy without entropy =     -102.87733772  energy(sigma->0) =     -102.87809297


--------------------------------------------------------------------------------------------------------




--------------------------------------- Iteration      1(  12)  ---------------------------------------


    POTLOK:  cpu time    0.0965: real time    0.0972
    SETDIJ:  cpu time    0.0352: real time    0.0352
    EDDIAG:  cpu time    5.3494: real time    5.3544
  RMM-DIIS:  cpu time   18.1171: real time   18.1403
    ORTHCH:  cpu time    1.0117: real time    1.0125
       DOS:  cpu time    0.0059: real time    0.0059
    CHARGE:  cpu time    1.0913: real time    1.0920
    MIXING:  cpu time    0.0022: real time    0.0022
    --------------------------------------------
      LOOP:  cpu time   25.7093: real time   25.7398

 eigenvalue-minimisations  : 22961
 total energy-change (2. order) : 0.1110873E-01  (-0.6658254E-02)
 number of electron     128.0000058 magnetization      -0.0093741
 augmentation part       67.7009086 magnetization      -0.0223893

 Broyden mixing:
  rms(total) = 0.14414E+00    rms(broyden)= 0.14414E+00
  rms(prec ) = 0.17126E+00
  weight for this iteration     100.00

 eigenvalues of (default mixing * dielectric matrix)
  average eigenvalue GAMMA=   0.7738
  2.1634  0.8076  0.8076  0.5710  0.5710  0.2040  0.2918

 Free energy of the ion-electron system (eV)
  ---------------------------------------------------
  alpha Z        PSCENC =       532.96709039
  Ewald energy   TEWEN  =     -9409.08673760
  -Hartree energ DENC   =     -2821.58126423
  -exchange      EXHF   =         0.00000000
  -V(xc)+E(xc)   XCENC  =        76.10365969
  PAW double counting   =     12905.04179652   -13248.94446744
  entropy T*S    EENTRO =        -0.00133076
  eigenvalues    EBANDS =       633.17156183
  atomic energy  EATOM  =     11229.46195210
  Solvation  Ediel_sol  =         0.00000000
  ---------------------------------------------------
  free energy    TOTEN  =      -102.86773950 eV

  energy without entropy =     -102.86640874  energy(sigma->0) =     -102.86707412


--------------------------------------------------------------------------------------------------------




--------------------------------------- Iteration      1(  13)  ---------------------------------------


    POTLOK:  cpu time    0.0968: real time    0.0969
    SETDIJ:  cpu time    0.0349: real time    0.0350
    EDDIAG:  cpu time    5.3611: real time    5.3663
  RMM-DIIS:  cpu time   17.4936: real time   17.5111
    ORTHCH:  cpu time    1.0089: real time    1.0098
       DOS:  cpu time    0.0058: real time    0.0059
    CHARGE:  cpu time    1.0942: real time    1.0950
    MIXING:  cpu time    0.0023: real time    0.0023
    --------------------------------------------
      LOOP:  cpu time   25.0977: real time   25.1223

 eigenvalue-minimisations  : 22164
 total energy-change (2. order) : 0.1084584E-02  (-0.2338646E-02)
 number of electron     128.0000058 magnetization      -0.0026180
 augmentation part       67.7582196 magnetization       0.0180516

 Broyden mixing:
  rms(total) = 0.10793E+00    rms(broyden)= 0.10793E+00
  rms(prec ) = 0.15127E+00
  weight for this iteration     100.00

 eigenvalues of (default mixing * dielectric matrix)
  average eigenvalue GAMMA=   0.8104
  2.3035  0.9967  0.8743  0.8743  0.5679  0.2040  0.3812  0.2810

 Free energy of the ion-electron system (eV)
  ---------------------------------------------------
  alpha Z        PSCENC =       532.96709039
  Ewald energy   TEWEN  =     -9409.08673760
  -Hartree energ DENC   =     -2819.89344571
  -exchange      EXHF   =         0.00000000
  -V(xc)+E(xc)   XCENC  =        76.00396165
  PAW double counting   =     12948.13807752   -13292.19640290
  entropy T*S    EENTRO =        -0.00128877
  eigenvalues    EBANDS =       631.74013841
  atomic energy  EATOM  =     11229.46195210
  Solvation  Ediel_sol  =         0.00000000
  ---------------------------------------------------
  free energy    TOTEN  =      -102.86665491 eV

  energy without entropy =     -102.86536614  energy(sigma->0) =     -102.86601053


--------------------------------------------------------------------------------------------------------




--------------------------------------- Iteration      1(  14)  ---------------------------------------


    POTLOK:  cpu time    0.0970: real time    0.0971
    SETDIJ:  cpu time    0.0351: real time    0.0352
    EDDIAG:  cpu time    5.3677: real time    5.3728
  RMM-DIIS:  cpu time   17.3274: real time   17.3445
    ORTHCH:  cpu time    1.0124: real time    1.0133
       DOS:  cpu time    0.0057: real time    0.0058
    CHARGE:  cpu time    1.1047: real time    1.1054
    MIXING:  cpu time    0.0024: real time    0.0024
    --------------------------------------------
      LOOP:  cpu time   24.9526: real time   24.9765

 eigenvalue-minimisations  : 21802
 total energy-change (2. order) : 0.3871907E-02  (-0.1287486E-02)
 number of electron     128.0000058 magnetization       0.0043270
 augmentation part       67.7590625 magnetization      -0.0005719

 Broyden mixing:
  rms(total) = 0.48843E-01    rms(broyden)= 0.48842E-01
  rms(prec ) = 0.63324E-01
  weight for this iteration     100.00

 eigenvalues of (default mixing * dielectric matrix)
  average eigenvalue GAMMA=   0.8781
  2.4509  1.7853  0.8356  0.8356  0.6050  0.6050  0.2040  0.2997  0.2816

 Free energy of the ion-electron system (eV)
  ---------------------------------------------------
  alpha Z        PSCENC =       532.96709039
  Ewald energy   TEWEN  =     -9409.08673760
  -Hartree energ DENC   =     -2819.36236419
  -exchange      EXHF   =         0.00000000
  -V(xc)+E(xc)   XCENC  =        75.95825098
  PAW double counting   =     12979.90776984   -13324.17078539
  entropy T*S    EENTRO =        -0.00126533
  eigenvalues    EBANDS =       631.46330620
  atomic energy  EATOM  =     11229.46195210
  Solvation  Ediel_sol  =         0.00000000
  ---------------------------------------------------
  free energy    TOTEN  =      -102.86278301 eV

  energy without entropy =     -102.86151768  energy(sigma->0) =     -102.86215034


--------------------------------------------------------------------------------------------------------




--------------------------------------- Iteration      1(  15)  ---------------------------------------


    POTLOK:  cpu time    0.1030: real time    0.1038
    SETDIJ:  cpu time    0.0372: real time    0.0373
    EDDIAG:  cpu time    5.4593: real time    5.4634
  RMM-DIIS:  cpu time   17.7498: real time   17.7623
    ORTHCH:  cpu time    1.0110: real time    1.0117
       DOS:  cpu time    0.0056: real time    0.0056
    CHARGE:  cpu time    1.1118: real time    1.1125
    MIXING:  cpu time    0.0026: real time    0.0026
    --------------------------------------------
      LOOP:  cpu time   25.4804: real time   25.4990

 eigenvalue-minimisations  : 22248
 total energy-change (2. order) : 0.4512213E-03  (-0.3031031E-03)
 number of electron     128.0000058 magnetization       0.0023216
 augmentation part       67.7749961 magnetization       0.0000005

 Broyden mixing:
  rms(total) = 0.16096E-01    rms(broyden)= 0.16096E-01
  rms(prec ) = 0.19739E-01
  weight for this iteration     100.00

 eigenvalues of (default mixing * dielectric matrix)
  average eigenvalue GAMMA=   0.9281
  2.4294  2.1616  0.9561  0.9561  0.7625  0.6421  0.5893  0.2040  0.2934  0.2864

 Free energy of the ion-electron system (eV)
  ---------------------------------------------------
  alpha Z        PSCENC =       532.96709039
  Ewald energy   TEWEN  =     -9409.08673760
  -Hartree energ DENC   =     -2819.11518666
  -exchange      EXHF   =         0.00000000
  -V(xc)+E(xc)   XCENC  =        75.87016877
  PAW double counting   =     12992.45547084   -13336.64610178
  entropy T*S    EENTRO =        -0.00125663
  eigenvalues    EBANDS =       631.23226878
  atomic energy  EATOM  =     11229.46195210
  Solvation  Ediel_sol  =         0.00000000
  ---------------------------------------------------
  free energy    TOTEN  =      -102.86233179 eV

  energy without entropy =     -102.86107516  energy(sigma->0) =     -102.86170347


--------------------------------------------------------------------------------------------------------




--------------------------------------- Iteration      1(  16)  ---------------------------------------


    POTLOK:  cpu time    0.0973: real time    0.0973
    SETDIJ:  cpu time    0.0361: real time    0.0361
    EDDIAG:  cpu time    5.4216: real time    5.4257
  RMM-DIIS:  cpu time   18.6236: real time   18.6371
    ORTHCH:  cpu time    1.0104: real time    1.0111
       DOS:  cpu time    0.0057: real time    0.0058
[...]
     79      10.8779      0.00000
     80      11.1740      0.00000
     81      11.4912      0.00000
     82      11.6232      0.00000
     83      11.9685      0.00000
     84      12.3115      0.00000


--------------------------------------------------------------------------------------------------------


 soft charge-density along one line, spin component           1
         0         1         2         3         4         5         6         7         8         9
 total charge-density along one line

 soft charge-density along one line, spin component           2
         0         1         2         3         4         5         6         7         8         9
 total charge-density along one line

 pseudopotential strength for first ion, spin component:           1
 -1.569   0.002  -0.011  -0.012   0.001  -2.208   0.002  -0.010
  0.002  -1.578   0.019   0.008  -0.034   0.002  -2.217   0.018
 -0.011   0.019  -1.563  -0.020   0.002  -0.010   0.018  -2.202
 -0.012   0.008  -0.020  -1.577  -0.036  -0.012   0.007  -0.019
  0.001  -0.034   0.002  -0.036  -1.553   0.001  -0.032   0.002
 -2.208   0.002  -0.010  -0.012   0.001  -2.777   0.002  -0.010
  0.002  -2.217   0.018   0.007  -0.032   0.002  -2.786   0.017
 -0.010   0.018  -2.202  -0.019   0.002  -0.010   0.017  -2.771
 -0.012   0.007  -0.019  -2.216  -0.035  -0.012   0.007  -0.018
  0.001  -0.032   0.002  -0.035  -2.192   0.001  -0.030   0.002
 -0.004  -0.008   0.001   0.005   0.000  -0.004  -0.008   0.001
 -0.008  -0.015   0.002   0.009   0.000  -0.007  -0.014   0.002
 -0.003   0.002  -0.000   0.001  -0.000  -0.002   0.002  -0.000
  0.001  -0.002   0.001  -0.003  -0.000   0.001  -0.002   0.001
 -0.001   0.001   0.001   0.002  -0.001  -0.001   0.001   0.001
 -0.003   0.003  -0.000   0.002  -0.000  -0.003   0.003  -0.000
  0.002  -0.002   0.001  -0.003  -0.000   0.002  -0.002   0.001
 -0.002   0.002   0.001   0.003  -0.002  -0.002   0.002   0.001
 pseudopotential strength for first ion, spin component:           2
 -1.569  -0.012  -0.011   0.002  -0.001  -2.208  -0.012  -0.010
 -0.012  -1.578  -0.020   0.008   0.036  -0.012  -2.216  -0.019
 -0.011  -0.020  -1.563   0.019  -0.002  -0.010  -0.019  -2.202
  0.002   0.008   0.019  -1.578   0.034   0.002   0.007   0.018
 -0.001   0.036  -0.002   0.034  -1.553  -0.001   0.035  -0.002
 -2.208  -0.012  -0.010   0.002  -0.001  -2.777  -0.012  -0.010
 -0.012  -2.216  -0.019   0.007   0.035  -0.012  -2.785  -0.018
 -0.010  -0.019  -2.202   0.018  -0.002  -0.010  -0.018  -2.771
  0.002   0.007   0.018  -2.217   0.032   0.002   0.007   0.017
 -0.001   0.035  -0.002   0.032  -2.192  -0.001   0.033  -0.002
 -0.004   0.005   0.001  -0.008  -0.000  -0.004   0.006   0.001
 -0.008   0.009   0.002  -0.015  -0.000  -0.007   0.010   0.002
  0.001  -0.002  -0.001  -0.001  -0.001   0.001  -0.002  -0.001
 -0.001   0.003  -0.001   0.002  -0.000  -0.001   0.002  -0.001
  0.003  -0.001   0.000  -0.002  -0.000   0.002  -0.001   0.000
  0.002  -0.003  -0.001  -0.002  -0.002   0.002  -0.003  -0.001
 -0.002   0.003  -0.001   0.002  -0.000  -0.002   0.003  -0.001
  0.003  -0.002   0.000  -0.003  -0.000   0.003  -0.002   0.000
 total augmentation occupancy for first ion, spin component:           1
  1.993   0.078   0.024   0.078   0.000  -0.525  -0.081  -0.025  -0.081  -0.000  -0.053   0.036  -0.011   0.000   0.011   0.001
  0.078   1.956  -0.021   0.101   0.040  -0.081  -0.504   0.019  -0.086  -0.034  -0.106   0.038   0.006  -0.001  -0.004  -0.000
  0.024  -0.021   2.730  -0.021  -0.000  -0.025   0.019  -1.014   0.019   0.000  -0.005   0.000  -0.007   0.000   0.007   0.001
  0.078   0.101  -0.021   1.956  -0.039  -0.081  -0.086   0.019  -0.504   0.034  -0.106   0.038   0.004   0.001  -0.006  -0.000
  0.000   0.040  -0.000  -0.039   2.727  -0.000  -0.034   0.000   0.034  -1.012  -0.000   0.000  -0.022   0.005  -0.022   0.000
 -0.525  -0.081  -0.025  -0.081  -0.000   0.843   0.083   0.011   0.083   0.000   0.032  -0.024   0.011  -0.000  -0.011  -0.001
 -0.081  -0.504   0.019  -0.086  -0.034   0.083   0.830  -0.011   0.079   0.019   0.065  -0.025  -0.003  -0.005   0.002   0.000
 -0.025   0.019  -1.014   0.019   0.000   0.011  -0.011   1.070  -0.011  -0.000   0.002   0.000   0.007  -0.000  -0.007  -0.001
 -0.081  -0.086   0.019  -0.504   0.034   0.083   0.079  -0.011   0.830  -0.019   0.065  -0.025  -0.002   0.005   0.003   0.000
 -0.000  -0.034   0.000   0.034  -1.012   0.000   0.019  -0.000  -0.019   1.071   0.000   0.000   0.019  -0.004   0.019  -0.001
 -0.053  -0.106  -0.005  -0.106  -0.000   0.032   0.065   0.002   0.065   0.000   2.124  -0.290  -0.012  -0.000   0.012   0.002
  0.036   0.038   0.000   0.038   0.000  -0.024  -0.025   0.000  -0.025   0.000  -0.290   0.050   0.001   0.000  -0.001  -0.000
 -0.011   0.006  -0.007   0.004  -0.022   0.011  -0.003   0.007  -0.002   0.019  -0.012   0.001   0.257   0.001   0.001  -0.027
  0.000  -0.001   0.000   0.001   0.005  -0.000  -0.005  -0.000   0.005  -0.004  -0.000   0.000   0.001   0.255   0.001  -0.002
  0.011  -0.004   0.007  -0.006  -0.022  -0.011   0.002  -0.007   0.003   0.019   0.012  -0.001   0.001   0.001   0.257  -0.002
  0.001  -0.000   0.001  -0.000   0.000  -0.001   0.000  -0.001   0.000  -0.001   0.002  -0.000  -0.027  -0.002  -0.002   0.003
 -0.000  -0.000  -0.000   0.000   0.000   0.000   0.001   0.000  -0.001   0.000   0.000  -0.000  -0.002  -0.027  -0.002   0.001
 -0.001   0.000  -0.001   0.000   0.000   0.001  -0.000   0.001  -0.000  -0.001  -0.002   0.000  -0.002  -0.002  -0.027   0.001
 total augmentation occupancy for first ion, spin component:           2
 -0.000   0.152   0.000  -0.152  -0.016   0.000  -0.151  -0.000   0.151   0.011   0.000   0.000   0.038  -0.045   0.038  -0.001
  0.152  -0.002  -0.177   0.000   0.291  -0.151   0.001   0.095  -0.000  -0.149   0.092  -0.005  -0.043   0.043  -0.041   0.002
  0.000  -0.177  -0.000   0.177  -0.030  -0.000   0.096  -0.000  -0.096   0.021  -0.000  -0.000   0.007   0.018   0.007   0.000
 -0.152   0.000   0.177   0.001   0.291   0.151   0.000  -0.095  -0.001  -0.149  -0.092   0.005  -0.041   0.043  -0.043   0.001
 -0.016   0.291  -0.030   0.291  -0.000   0.010  -0.150   0.021  -0.150   0.000   0.008   0.006   0.019   0.000  -0.019  -0.000
  0.000  -0.151  -0.000   0.151   0.010  -0.000   0.137   0.000  -0.137  -0.006  -0.000   0.000  -0.023   0.032  -0.023   0.003
 -0.151   0.001   0.096   0.000  -0.150   0.137  -0.001  -0.042   0.000   0.058  -0.059   0.013   0.027  -0.026   0.029  -0.003
 -0.000   0.095  -0.000  -0.095   0.021   0.000  -0.042   0.000   0.042  -0.014   0.000  -0.000  -0.008  -0.018  -0.008   0.000
  0.151  -0.000  -0.096  -0.001  -0.150  -0.137   0.000   0.042   0.001   0.058   0.059  -0.013   0.029  -0.026   0.027  -0.002
  0.011  -0.149   0.021  -0.149   0.000  -0.006   0.058  -0.014   0.058   0.000  -0.005  -0.003  -0.017  -0.000   0.017   0.000
  0.000   0.092  -0.000  -0.092   0.008  -0.000  -0.059   0.000   0.059  -0.005  -0.000   0.000   0.005  -0.004   0.005   0.001
  0.000  -0.005  -0.000   0.005   0.006   0.000   0.013  -0.000  -0.013  -0.003   0.000  -0.000   0.002  -0.002   0.002  -0.000
  0.038  -0.043   0.007  -0.041   0.019  -0.023   0.027  -0.008   0.029  -0.017   0.005   0.002  -0.001  -0.014  -0.000  -0.000
 -0.045   0.043   0.018   0.043   0.000   0.032  -0.026  -0.018  -0.026  -0.000  -0.004  -0.002  -0.014   0.000   0.014   0.002
  0.038  -0.041   0.007  -0.043  -0.019  -0.023   0.029  -0.008   0.027   0.017   0.005   0.002  -0.000   0.014   0.001   0.000
 -0.001   0.002   0.000   0.001  -0.000   0.003  -0.003   0.000  -0.002   0.000   0.001  -0.000  -0.000   0.002   0.000  -0.000
  0.001  -0.002   0.000  -0.002  -0.000  -0.003   0.003   0.000   0.003   0.000  -0.002   0.000   0.002  -0.000  -0.002  -0.000
 -0.001   0.001   0.000   0.002   0.000   0.003  -0.002   0.000  -0.003  -0.000   0.001  -0.000  -0.000  -0.002   0.000  -0.000


------------------------ aborting loop because EDIFF is reached ----------------------------------------





 total charge     

# of ion       s       p       d       tot
------------------------------------------
    1        0.466   0.424   8.396   9.286
    2        0.467   0.421   8.381   9.269
    3        0.467   0.421   8.381   9.269
    4        0.466   0.424   8.405   9.295
    5        0.466   0.424   8.405   9.295
    6        0.467   0.421   8.381   9.269
    7        0.467   0.421   8.381   9.269
    8        0.466   0.424   8.396   9.286
    9        0.340   0.335   4.921   5.596
   10        0.330   0.315   4.939   5.584
   11        0.328   0.319   4.893   5.540
   12        0.330   0.315   4.938   5.584
   13        0.340   0.335   4.920   5.595
   14        0.328   0.319   4.892   5.539
   15        1.265   1.840   0.355   3.460
   16        1.265   1.840   0.355   3.459
--------------------------------------------------
tot          8.261   8.997  97.337 114.595



 magnetization (x)

# of ion       s       p       d       tot
------------------------------------------
    1       -0.000  -0.000  -0.000  -0.000
    2       -0.000   0.005   0.020   0.025
    3        0.000  -0.005  -0.020  -0.025
    4       -0.000  -0.000  -0.000  -0.000
    5       -0.000  -0.000  -0.000  -0.000
    6        0.000  -0.005  -0.020  -0.025
    7       -0.000   0.005   0.020   0.025
    8       -0.000  -0.000  -0.000  -0.000
    9       -0.026  -0.046  -3.482  -3.554
   10       -0.034  -0.019  -3.524  -3.577
   11        0.035   0.059   3.543   3.637
   12        0.034   0.019   3.524   3.578
   13        0.026   0.046   3.483   3.554
   14       -0.035  -0.059  -3.544  -3.637
   15       -0.006  -0.025   0.000  -0.031
   16        0.006   0.025  -0.000   0.031
--------------------------------------------------
tot         -0.000  -0.000  -0.000  -0.000

    CHARGE:  cpu time    1.1096: real time    1.1102
    FORLOC:  cpu time    0.0072: real time    0.0072
    FORNL :  cpu time    8.0714: real time    8.0767
    STRESS:  cpu time   24.2799: real time   24.3028
    FORCOR:  cpu time    0.0999: real time    0.1000
    FORHAR:  cpu time    0.0162: real time    0.0162
    MIXING:  cpu time    0.0034: real time    0.0034
    OFIELD:  cpu time    0.0000: real time    0.0000

  FORCE on cell =-STRESS in cart. coord.  units (eV):
  Direction    XX          YY          ZZ          XY          YZ          ZX
  --------------------------------------------------------------------------------------
  Alpha Z   532.96709   532.96709   532.96709
  Ewald   -3137.72184 -3137.71396 -3133.67916    -0.00000    -0.00000     0.00000
  Hartree   939.29567   939.28797   941.05184    -0.00000    -0.00000    -0.00000
  E(xc)    -671.60612  -671.60618  -671.31782     0.00000     0.00000     0.00000
  Local    -161.42968  -161.43030  -163.99093     0.00000     0.00000     0.00000
  n-local  -145.29735  -145.29750  -145.58652    -0.24053    -0.29605    -0.29281
  augment  1580.81945  1580.81918  1578.48407    -0.00000     0.00000     0.00000
  Kinetic  1063.94804  1063.94842  1060.16257     0.94713     1.63323     1.63374
  Fock        0.00000     0.00000     0.00000     0.00000     0.00000     0.00000
  -------------------------------------------------------------------------------------
  Total       0.97525     0.97473    -1.90886    -0.00000     0.00000     0.00000
  in kB       7.40084     7.39684   -14.48564    -0.00000     0.00000     0.00000
  external pressure =        0.10 kB  Pullay stress =        0.00 kB


 VOLUME and BASIS-vectors are now :
 -----------------------------------------------------------------------------
  energy-cutoff  :      550.00
  volume of cell :      211.13
      direct lattice vectors                 reciprocal lattice vectors
     5.954550571  0.000000000  0.000000000     0.167938787  0.000000000  0.000000000
     0.000000000  5.954550571  0.000000000     0.000000000  0.167938787  0.000000000
     0.000000000  0.000000000  5.954550571     0.000000000  0.000000000  0.167938787

  length of vectors
     5.954550571  5.954550571  5.954550571     0.167938787  0.167938787  0.167938787


 FORCES acting on ions
    electron-ion (+dipol)            ewald-force                    non-local-force                 convergence-correction
 -----------------------------------------------------------------------------------------------
   0.212E+02 -.212E+02 -.166E+00   -.212E+02 0.211E+02 0.149E+00   -.394E-01 0.383E-01 -.705E-03   0.256E-01 -.302E-01 0.188E-01
   -.212E+02 -.212E+02 -.167E+00   0.212E+02 0.211E+02 0.149E+00   0.394E-01 0.383E-01 -.705E-03   -.256E-01 -.302E-01 0.188E-01
   0.212E+02 0.212E+02 -.166E+00   -.212E+02 -.211E+02 0.149E+00   -.394E-01 -.383E-01 -.705E-03   0.256E-01 0.302E-01 0.188E-01
   -.212E+02 0.212E+02 -.166E+00   0.212E+02 -.211E+02 0.149E+00   0.394E-01 -.383E-01 -.705E-03   -.256E-01 0.302E-01 0.188E-01
   0.212E+02 -.212E+02 0.166E+00   -.212E+02 0.211E+02 -.149E+00   -.394E-01 0.383E-01 0.705E-03   0.256E-01 -.302E-01 -.188E-01
   -.212E+02 -.212E+02 0.166E+00   0.212E+02 0.211E+02 -.149E+00   0.394E-01 0.383E-01 0.705E-03   -.256E-01 -.302E-01 -.188E-01
   0.212E+02 0.212E+02 0.167E+00   -.212E+02 -.211E+02 -.149E+00   -.394E-01 -.383E-01 0.705E-03   0.256E-01 0.302E-01 -.188E-01
   -.212E+02 0.212E+02 0.166E+00   0.212E+02 -.211E+02 -.149E+00   0.394E-01 -.383E-01 0.705E-03   -.256E-01 0.302E-01 -.188E-01
   0.198E-12 -.548E-14 -.946E-12   0.400E-14 0.112E-13 -.209E-14   0.000E+00 0.000E+00 0.000E+00   0.896E-14 0.453E-13 0.598E-13
   0.199E-12 0.126E-12 0.237E-12   -.127E-13 -.542E-13 0.263E-13   0.000E+00 0.000E+00 0.000E+00   0.263E-14 -.318E-13 0.551E-13
   -.196E-13 0.193E-12 -.669E-13   -.176E-13 -.273E-13 -.200E-14   0.000E+00 0.000E+00 0.000E+00   -.104E-13 -.487E-13 0.442E-13
   -.270E-13 -.390E-13 0.182E-12   0.258E-13 -.163E-13 0.447E-13   0.000E+00 0.000E+00 0.000E+00   -.310E-13 0.203E-13 -.291E-13
   0.200E-12 -.213E-13 0.843E-12   -.798E-13 -.149E-13 0.872E-13   0.000E+00 0.000E+00 0.000E+00   0.308E-13 0.266E-13 -.599E-13
   -.195E-13 0.194E-12 0.177E-12   -.532E-14 0.435E-13 0.304E-13   0.000E+00 0.000E+00 0.000E+00   -.191E-13 -.167E-13 -.435E-13
   -.148E-13 -.186E-13 -.247E-13   -.798E-14 -.792E-16 -.375E-14   0.000E+00 0.000E+00 0.000E+00   -.394E-14 0.131E-13 0.160E-13
   -.262E-13 -.284E-12 -.662E-12   0.359E-13 0.116E-14 -.607E-14   0.000E+00 0.000E+00 0.000E+00   0.175E-14 -.900E-14 -.181E-13
 -----------------------------------------------------------------------------------------------
   0.264E-11 0.151E-10 -.719E-10   -.151E-13 -.143E-13 0.139E-12   0.694E-17 -.278E-16 0.000E+00   0.272E-12 0.241E-12 -.194E-12


 POSITION                                       TOTAL-FORCE (eV/Angst)
 -----------------------------------------------------------------------------------
      1.51085      1.46642      1.48847        -0.000844      0.001359      0.000170
      4.44370      1.46642      1.48847         0.000844      0.001359      0.000170
      1.51085      4.48813      1.48847        -0.000844     -0.001359      0.000170
      4.44370      4.48813      1.48847         0.000844     -0.001359      0.000170
      1.51085      1.46642      4.46608        -0.000844      0.001359     -0.000170
      4.44370      1.46642      4.46608         0.000844      0.001359     -0.000170
      1.51085      4.48813      4.46608        -0.000844     -0.001359     -0.000170
      4.44370      4.48813      4.46608         0.000844     -0.001359     -0.000170
      2.97728      0.00000      0.00000         0.000000      0.000000      0.000000
      2.97728      2.97728      0.00000         0.000000      0.000000      0.000000
      0.00000      2.97728      0.00000         0.000000      0.000000      0.000000
      0.00000      0.00000      2.97728         0.000000      0.000000      0.000000
      2.97728      0.00000      2.97728         0.000000      0.000000      0.000000
      0.00000      2.97728      2.97728         0.000000      0.000000      0.000000
      0.00000      0.00000      0.00000         0.000000      0.000000      0.000000
      2.97728      2.97728      2.97728         0.000000      0.000000      0.000000
 -----------------------------------------------------------------------------------
    total drift:                                0.000000      0.000000     -0.000000


--------------------------------------------------------------------------------------------------------



  FREE ENERGIE OF THE ION-ELECTRON SYSTEM (eV)
  ---------------------------------------------------
  free  energy   TOTEN  =      -102.86228553 eV

  energy  without entropy=     -102.86102051  energy(sigma->0) =     -102.86165302



--------------------------------------------------------------------------------------------------------


    POTLOK:  cpu time    0.1333: real time    0.1334


--------------------------------------------------------------------------------------------------------




--------------------------------------------------------------------------------------------------------


  
 reached required accuracy - stopping structural energy minimisation
     LOOP+:  cpu time  596.6358: real time  597.2564
    4ORBIT:  cpu time    0.0000: real time    0.0000



 total charge     

# of ion       s       p       d       tot
------------------------------------------
    1        0.466   0.424   8.396   9.286
    2        0.467   0.421   8.381   9.269
    3        0.467   0.421   8.381   9.269
    4        0.466   0.424   8.405   9.295
    5        0.466   0.424   8.405   9.295
    6        0.467   0.421   8.381   9.269
    7        0.467   0.421   8.381   9.269
    8        0.466   0.424   8.396   9.286
    9        0.340   0.335   4.921   5.596
   10        0.330   0.315   4.939   5.584
   11        0.328   0.319   4.893   5.540
   12        0.330   0.315   4.938   5.584
   13        0.340   0.335   4.920   5.595
   14        0.328   0.319   4.892   5.539
   15        1.265   1.840   0.355   3.460
   16        1.265   1.840   0.355   3.459
--------------------------------------------------
tot          8.261   8.997  97.337 114.595



 magnetization (x)

# of ion       s       p       d       tot
------------------------------------------
    1       -0.000  -0.000  -0.000  -0.000
    2       -0.000   0.005   0.020   0.025
    3        0.000  -0.005  -0.020  -0.025
    4       -0.000  -0.000  -0.000  -0.000
    5       -0.000  -0.000  -0.000  -0.000
    6        0.000  -0.005  -0.020  -0.025
    7       -0.000   0.005   0.020   0.025
    8       -0.000  -0.000  -0.000  -0.000
    9       -0.026  -0.046  -3.482  -3.554
   10       -0.034  -0.019  -3.524  -3.577
   11        0.035   0.059   3.543   3.637
   12        0.034   0.019   3.524   3.578
   13        0.026   0.046   3.483   3.554
   14       -0.035  -0.059  -3.544  -3.637
   15       -0.006  -0.025   0.000  -0.031
   16        0.006   0.025  -0.000   0.031
--------------------------------------------------
tot         -0.000  -0.000  -0.000  -0.000


 total amount of memory used by VASP MPI-rank0   138197. kBytes
=======================================================================

   base      :      30000. kBytes
   nonlr-proj:       6789. kBytes
   fftplans  :       1269. kBytes
   grid      :       6573. kBytes
   one-center:        497. kBytes
   wavefun   :      93069. kBytes

  
  
 General timing and accounting informations for this job:
 ========================================================
  
                  Total CPU time used (sec):      611.831
                            User time (sec):      579.553
                          System time (sec):       32.277
                         Elapsed time (sec):      613.058
  
                   Maximum memory used (kb):      181296.
                   Average memory used (kb):           0.
  
                          Minor page faults:     14841293
                          Major page faults:            7
                 Voluntary context switches:         2011
