 vasp.5.4.4.18Apr17-6-g9f103f2a35 (build May 21 2018 20:56:50) complex           
 executed on             LinuxGNU date 2021.10.15  15:43:04
 running on   12 total cores
 distrk:  each k-point on   12 cores,    1 groups
 distr:  one band on NCORES_PER_BAND=   1 cores,   12 groups


--------------------------------------------------------------------------------------------------------


 INCAR:
 POTCAR:    PAW_PBE Ni 02Aug2007                  
 POTCAR:    PAW_PBE Mn 06Sep2000                  
 POTCAR:    PAW_PBE In 08Apr2002                  

 ----------------------------------------------------------------------------- 
|                                                                             |
|           W    W    AA    RRRRR   N    N  II  N    N   GGGG   !!!           |
|           W    W   A  A   R    R  NN   N  II  NN   N  G    G  !!!           |
|           W    W  A    A  R    R  N N  N  II  N N  N  G       !!!           |
|           W WW W  AAAAAA  RRRRR   N  N N  II  N  N N  G  GGG   !            |
|           WW  WW  A    A  R   R   N   NN  II  N   NN  G    G                |
|           W    W  A    A  R    R  N    N  II  N    N   GGGG   !!!           |
|                                                                             |
|      For optimal performance we recommend to set                            |
|        NCORE= 4 - approx SQRT( number of cores)                             |
|      NCORE specifies how many cores store one orbital (NPAR=cpu/NCORE).     |
|      This setting can  greatly improve the performance of VASP for DFT.     |
|      The default,   NCORE=1            might be grossly inefficient         |
|      on modern multi-core architectures or massively parallel machines.     |
|      Do your own testing !!!!                                               |
|      Unfortunately you need to use the default for GW and RPA calculations. |
|      (for HF NCORE is supported but not extensively tested yet)             |
|                                                                             |
 ----------------------------------------------------------------------------- 

 POTCAR:    PAW_PBE Ni 02Aug2007                  
   VRHFIN =Ni:                                                                  
   LEXCH  = PE                                                                  
   EATOM  =  1077.6739 eV,   79.2068 Ry                                         
                                                                                
   TITEL  = PAW_PBE Ni 02Aug2007                                                
   LULTRA =        F    use ultrasoft PP ?                                      
   IUNSCR =        1    unscreen: 0-lin 1-nonlin 2-no                           
   RPACOR =    2.000    partial core radius                                     
   POMASS =   58.690; ZVAL   =   10.000    mass and valenz                      
   RCORE  =    2.300    outmost cutoff radius                                   
   RWIGS  =    2.430; RWIGS  =    1.286    wigner-seitz radius (au A)           
   ENMAX  =  269.532; ENMIN  =  202.149 eV                                      
   RCLOC  =    1.201    cutoff for local pot                                    
   LCOR   =        T    correct aug charges                                     
   LPAW   =        T    paw PP                                                  
   EAUG   =  544.565                                                            
   DEXC   =    0.000                                                            
   RMAX   =    2.357    core radius for proj-oper                               
   RAUG   =    1.300    factor for augmentation sphere                          
   RDEP   =    2.390    radius for radial grids                                 
   RDEPT  =    1.838    core radius for aug-charge                              
                                                                                
   Atomic configuration                                                         
    9 entries                                                                   
     n  l   j            E        occ.                                          
     1  0  0.50     -8206.4253   2.0000                                         
     2  0  0.50      -976.1748   2.0000                                         
     2  1  1.50      -839.0571   6.0000                                         
     3  0  0.50      -105.9991   2.0000                                         
     3  1  1.50       -66.4603   6.0000                                         
     3  2  2.50        -4.6458   9.0000                                         
     4  0  0.50        -4.4926   1.0000                                         
     4  1  1.50        -4.0817   0.0000                                         
     4  3  2.50        -1.3606   0.0000                                         
   Description                                                                  
     l       E           TYP  RCUT    TYP  RCUT                                 
     2     -4.6457903     23  2.300                                             
     2     -6.0063729     23  2.300                                             
     0     -4.4925590     23  2.300                                             
     0      5.0102601     23  2.300                                             
     1     -2.7211652     23  2.300                                             
     1     16.5183231     23  2.300                                             
  local pseudopotential read in
  partial core-charges read in
  partial kinetic energy density read in
  atomic valenz-charges read in
  non local Contribution for L=           2  read in
    real space projection operators read in
  non local Contribution for L=           2  read in
    real space projection operators read in
  non local Contribution for L=           0  read in
    real space projection operators read in
  non local Contribution for L=           0  read in
    real space projection operators read in
  non local Contribution for L=           1  read in
    real space projection operators read in
  non local Contribution for L=           1  read in
    real space projection operators read in
    PAW grid and wavefunctions read in

   number of l-projection  operators is LMAX  =           6
   number of lm-projection operators is LMMAX =          18

 POTCAR:    PAW_PBE Mn 06Sep2000                  
   VRHFIN =Mn: d6 s1                                                            
   LEXCH  = PE                                                                  
   EATOM  =   416.7541 eV,   30.6306 Ry                                         
                                                                                
   TITEL  = PAW_PBE Mn 06Sep2000                                                
   LULTRA =        F    use ultrasoft PP ?                                      
   IUNSCR =        1    unscreen: 0-lin 1-nonlin 2-no                           
   RPACOR =    2.000    partial core radius                                     
   POMASS =   54.938; ZVAL   =    7.000    mass and valenz                      
   RCORE  =    2.300    outmost cutoff radius                                   
   RWIGS  =    2.500; RWIGS  =    1.323    wigner-seitz radius (au A)           
   ENMAX  =  269.864; ENMIN  =  202.398 eV                                      
   RCLOC  =    1.725    cutoff for local pot                                    
   LCOR   =        T    correct aug charges                                     
   LPAW   =        T    paw PP                                                  
   EAUG   =  500.711                                                            
   DEXC   =    0.000                                                            
   RMAX   =    2.343    core radius for proj-oper                               
   RAUG   =    1.300    factor for augmentation sphere                          
   RDEP   =    2.338    radius for radial grids                                 
   RDEPT  =    1.911    core radius for aug-charge                              
                                                                                
   Atomic configuration                                                         
    9 entries                                                                   
     n  l   j            E        occ.                                          
     1  0  0.50     -6424.8288   2.0000                                         
     2  0  0.50      -739.1154   2.0000                                         
     2  1  1.50      -625.3949   6.0000                                         
     3  0  0.50       -81.6100   2.0000                                         
     3  1  1.50       -50.4667   6.0000                                         
     3  2  2.50        -3.3745   6.0000                                         
     4  0  0.50        -4.1331   1.0000                                         
     4  1  0.50        -4.0817   0.0000                                         
     4  3  2.50        -1.3606   0.0000                                         
   Description                                                                  
     l       E           TYP  RCUT    TYP  RCUT                                 
     2     -3.3744664     23  2.300                                             
     2     -4.7350490     23  2.300                                             
     0     -4.1331408     23  2.300                                             
     0      7.6656614     23  2.300                                             
     1     -2.7211652     23  2.300                                             
     1     20.4087390     23  2.300                                             
  local pseudopotential read in
  partial core-charges read in
  partial kinetic energy density read in
  atomic valenz-charges read in
  non local Contribution for L=           2  read in
    real space projection operators read in
  non local Contribution for L=           2  read in
    real space projection operators read in
  non local Contribution for L=           0  read in
    real space projection operators read in
  non local Contribution for L=           0  read in
    real space projection operators read in
  non local Contribution for L=           1  read in
    real space projection operators read in
  non local Contribution for L=           1  read in
    real space projection operators read in
    PAW grid and wavefunctions read in

   number of l-projection  operators is LMAX  =           6
   number of lm-projection operators is LMMAX =          18

 POTCAR:    PAW_PBE In 08Apr2002                  
   VRHFIN =In: s2p1                                                             
   LEXCH  = PE                                                                  
   EATOM  =    53.7908 eV,    3.9535 Ry                                         
                                                                                
   TITEL  = PAW_PBE In 08Apr2002                                                
   LULTRA =        F    use ultrasoft PP ?                                      
   IUNSCR =        1    unscreen: 0-lin 1-nonlin 2-no                           
   RPACOR =    2.400    partial core radius                                     
   POMASS =  114.820; ZVAL   =    3.000    mass and valenz                      
   RCORE  =    3.100    outmost cutoff radius                                   
   RWIGS  =    3.170; RWIGS  =    1.677    wigner-seitz radius (au A)           
   ENMAX  =   95.934; ENMIN  =   71.951 eV                                      
   ICORE  =        3    local potential                                         
   LCOR   =        T    correct aug charges                                     
   LPAW   =        T    paw PP                                                  
   EAUG   =  237.125                                                            
   DEXC   =    0.000                                                            
   RMAX   =    3.168    core radius for proj-oper                               
   RAUG   =    1.300    factor for augmentation sphere                          
   RDEP   =    3.187    radius for radial grids                                 
   RDEPT  =    2.711    core radius for aug-charge                              
                                                                                
   Atomic configuration                                                         
   13 entries                                                                   
     n  l   j            E        occ.                                          
     1  0  0.50    -27747.9169   2.0000                                         
     2  0  0.50     -4154.4438   2.0000                                         
     2  1  1.50     -3728.4305   6.0000                                         
     3  0  0.50      -788.3680   2.0000                                         
     3  1  1.50      -648.9215   6.0000                                         
     3  2  2.50      -432.5893  10.0000                                         
     4  0  0.50      -119.6363   2.0000                                         
     4  1  1.50       -78.1086   6.0000                                         
     4  2  2.50       -18.6227  10.0000                                         
     5  0  0.50        -8.2107   2.0000                                         
     5  1  0.50        -2.5185   1.0000                                         
     5  2  2.50        -1.3606   0.0000                                         
     4  3  2.50        -2.7212   0.0000                                         
   Description                                                                  
     l       E           TYP  RCUT    TYP  RCUT                                 
     0     -8.2107306     23  3.100                                             
     0     -6.1485975     23  3.100                                             
     1     -2.5184867     23  3.100                                             
     1      3.2427302     23  3.100                                             
     2     -1.3605826     23  3.100                                             
     3     -1.3605826     23  3.100                                             
  local pseudopotential read in
  partial core-charges read in
  partial kinetic energy density read in
  atomic valenz-charges read in
  non local Contribution for L=           0  read in
    real space projection operators read in
  non local Contribution for L=           0  read in
    real space projection operators read in
  non local Contribution for L=           1  read in
    real space projection operators read in
  non local Contribution for L=           1  read in
    real space projection operators read in
  non local Contribution for L=           2  read in
    real space projection operators read in
    PAW grid and wavefunctions read in

   number of l-projection  operators is LMAX  =           5
   number of lm-projection operators is LMMAX =          13

 Optimization of the real space projectors (new method)

 maximal supplied QI-value         = 16.25
 optimisation between [QCUT,QGAM] = [ 11.86, 23.89] = [ 39.41,159.82] Ry 
 Optimized for a Real-space Cutoff    1.33 Angstroem

   l    n(q)    QCUT    max X(q) W(low)/X(q) W(high)/X(q)  e(spline) 
   2      9    11.864    60.317    0.21E-03    0.51E-03    0.25E-06
   2      9    11.864    55.921    0.21E-03    0.51E-03    0.26E-06
   0      9    11.864    51.690    0.22E-03    0.30E-04    0.17E-06
   0      9    11.864    30.015    0.20E-03    0.28E-04    0.15E-06
   1      9    11.864    18.849    0.76E-04    0.33E-03    0.17E-06
   1      9    11.864    14.624    0.60E-04    0.28E-03    0.15E-06
 Optimization of the real space projectors (new method)

 maximal supplied QI-value         = 16.25
 optimisation between [QCUT,QGAM] = [ 11.86, 23.89] = [ 39.41,159.82] Ry 
 Optimized for a Real-space Cutoff    1.36 Angstroem

   l    n(q)    QCUT    max X(q) W(low)/X(q) W(high)/X(q)  e(spline) 
   2      9    11.864   110.144    0.49E-03    0.50E-03    0.21E-06
   2      9    11.864   103.200    0.49E-03    0.51E-03    0.22E-06
   0     10    11.864    68.437    0.12E-03    0.41E-04    0.21E-06
   0     10    11.864    33.971    0.11E-03    0.36E-04    0.19E-06
   1      9    11.864    17.065    0.24E-03    0.26E-03    0.93E-07
   1      9    11.864    12.540    0.19E-03    0.20E-03    0.80E-07
 Optimization of the real space projectors (new method)

 maximal supplied QI-value         = 12.09
 optimisation between [QCUT,QGAM] = [ 11.97, 23.95] = [ 40.14,160.58] Ry 
 Optimized for a Real-space Cutoff    1.63 Angstroem

   l    n(q)    QCUT    max X(q) W(low)/X(q) W(high)/X(q)  e(spline) 
   0     12    11.973   106.980    0.33E-03    0.16E-03    0.25E-05
   0     12    11.973    81.086    0.37E-03    0.18E-03    0.28E-05
   1     11    11.973    53.097    0.22E-03    0.42E-03    0.40E-05
   1     11    11.973    32.621    0.20E-03    0.40E-03    0.37E-05
   2     11    11.973     8.820    0.30E-03    0.17E-03    0.41E-06
  PAW_PBE Ni 02Aug2007                  :
 energy of atom  1       EATOM=-1077.6739
 kinetic energy error for atom=    0.0027 (will be added to EATOM!!)
  PAW_PBE Mn 06Sep2000                  :
 energy of atom  2       EATOM= -416.7541
 kinetic energy error for atom=    0.0022 (will be added to EATOM!!)
  PAW_PBE In 08Apr2002                  :
 energy of atom  3       EATOM=  -53.7908
 kinetic energy error for atom=    0.0000 (will be added to EATOM!!)


 POSCAR: Ni2MnIn                                 
  positions in direct lattice
  velocities in cartesian coordinates
 exchange correlation table for  LEXCH =        8
   RHO(1)=    0.500       N(1)  =     2000
   RHO(2)=  100.500       N(2)  =     4000



--------------------------------------------------------------------------------------------------------


 ion  position               nearest neighbor table
   1  0.250  0.250  0.263-  11 2.53  12 2.53  13 2.53  14 2.53   9 2.62  10 2.62  15 2.62  16 2.62
                             5 2.82   3 2.98   2 2.98   3 2.98   2 2.98
   2  0.750  0.250  0.263-  11 2.53  12 2.53  13 2.53  14 2.53   9 2.62  10 2.62  15 2.62  16 2.62
                             6 2.82   4 2.98   1 2.98   4 2.98   1 2.98
   3  0.250  0.750  0.263-  11 2.53  12 2.53  13 2.53  14 2.53   9 2.62  10 2.62  15 2.62  16 2.62
                             7 2.82   4 2.98   1 2.98   1 2.98   4 2.98
   4  0.750  0.750  0.263-  11 2.53  12 2.53  13 2.53  14 2.53   9 2.62  10 2.62  15 2.62  16 2.62
                             8 2.82   3 2.98   2 2.98   2 2.98   3 2.98
   5  0.250  0.250  0.737-  11 2.53  12 2.53  13 2.53  14 2.53   9 2.62  10 2.62  15 2.62  16 2.62
                             1 2.82   6 2.98   7 2.98   7 2.98   6 2.98
   6  0.750  0.250  0.737-  11 2.53  12 2.53  13 2.53  14 2.53   9 2.62  10 2.62  15 2.62  16 2.62
                             2 2.82   5 2.98   8 2.98   8 2.98   5 2.98
   7  0.250  0.750  0.737-  11 2.53  12 2.53  13 2.53  14 2.53   9 2.62  10 2.62  15 2.62  16 2.62
                             3 2.82   5 2.98   8 2.98   5 2.98   8 2.98
   8  0.750  0.750  0.737-  11 2.53  12 2.53  13 2.53  14 2.53   9 2.62  10 2.62  15 2.62  16 2.62
                             4 2.82   6 2.98   7 2.98   6 2.98   7 2.98
   9  0.500  0.000  0.000-   1 2.62   2 2.62   3 2.62   4 2.62   5 2.62   6 2.62   7 2.62   8 2.62
                            12 2.98  15 2.98  16 2.98  12 2.98  16 2.98  15 2.98
  10  0.000  0.500  0.000-   1 2.62   2 2.62   3 2.62   4 2.62   5 2.62   6 2.62   7 2.62   8 2.62
                            14 2.98  15 2.98  16 2.98  14 2.98  15 2.98  16 2.98
  11  0.000  0.000  0.500-   1 2.53   2 2.53   3 2.53   4 2.53   5 2.53   6 2.53   7 2.53   8 2.53
                            12 2.98  14 2.98  15 2.98  15 2.98  14 2.98  12 2.98
  12  0.500  0.000  0.500-   1 2.53   2 2.53   3 2.53   4 2.53   5 2.53   6 2.53   7 2.53   8 2.53
                             9 2.98  11 2.98  13 2.98   9 2.98  13 2.98  11 2.98
  13  0.500  0.500  0.500-   1 2.53   2 2.53   3 2.53   4 2.53   5 2.53   6 2.53   7 2.53   8 2.53
                            12 2.98  14 2.98  16 2.98  16 2.98  12 2.98  14 2.98
  14  0.000  0.500  0.500-   1 2.53   2 2.53   3 2.53   4 2.53   5 2.53   6 2.53   7 2.53   8 2.53
                            10 2.98  11 2.98  13 2.98  10 2.98  11 2.98  13 2.98
  15  0.000  0.000  0.000-   1 2.62   2 2.62   3 2.62   4 2.62   5 2.62   6 2.62   7 2.62   8 2.62
                             9 2.98  10 2.98  11 2.98  11 2.98  10 2.98   9 2.98
  16  0.500  0.500  0.000-   1 2.62   2 2.62   3 2.62   4 2.62   5 2.62   6 2.62   7 2.62   8 2.62
                             9 2.98  10 2.98  13 2.98  13 2.98   9 2.98  10 2.98

  LATTYP: Found a simple cubic cell.
 ALAT       =     5.9530442939
  
  Lattice vectors:
  
 A1 = (   5.9530442939,   0.0000000000,   0.0000000000)
 A2 = (   0.0000000000,   5.9530442939,   0.0000000000)
 A3 = (   0.0000000000,   0.0000000000,   5.9530442939)


Analysis of symmetry for initial positions (statically):
=====================================================================
 Subroutine PRICEL returns following result:
 
  LATTYP: Found a simple tetragonal cell.
 ALAT       =     4.2094379889
 C/A-ratio  =     1.4142135624
  
  Lattice vectors:
  
 A1 = (   2.9765221469,  -2.9765221469,   0.0000000000)
 A2 = (  -2.9765221469,  -2.9765221469,   0.0000000000)
 A3 = (   0.0000000000,   0.0000000000,  -5.9530442939)
 
   2 primitive cells build up your supercell.
 

 Routine SETGRP: Setting up the symmetry group for a 
 simple cubic supercell.


 Subroutine GETGRP returns: Found 16 space group operations
 (whereof 16 operations were pure point group operations)
 out of a pool of 48 trial point group operations.


The static configuration has the point symmetry D_4h.


Analysis of symmetry for dynamics (positions and initial velocities):
=====================================================================
 Subroutine PRICEL returns following result:
 
  LATTYP: Found a simple tetragonal cell.
 ALAT       =     4.2094379889
 C/A-ratio  =     1.4142135624
  
  Lattice vectors:
  
 A1 = (   2.9765221469,  -2.9765221469,   0.0000000000)
 A2 = (  -2.9765221469,  -2.9765221469,   0.0000000000)
 A3 = (   0.0000000000,   0.0000000000,  -5.9530442939)
 
   2 primitive cells build up your supercell.
 

 Routine SETGRP: Setting up the symmetry group for a 
 simple cubic supercell.


 Subroutine GETGRP returns: Found 16 space group operations
 (whereof 16 operations were pure point group operations)
 out of a pool of 48 trial point group operations.


The dynamic configuration has the point symmetry D_4h.


Analysis of structural, dynamic, and magnetic symmetry:
=====================================================================
 Subroutine PRICEL returns following result:
 
  LATTYP: Found a simple tetragonal cell.
 ALAT       =     4.2094379889
 C/A-ratio  =     1.4142135624
  
  Lattice vectors:
  
 A1 = (   2.9765221469,  -2.9765221469,   0.0000000000)
 A2 = (  -2.9765221469,  -2.9765221469,   0.0000000000)
 A3 = (   0.0000000000,   0.0000000000,  -5.9530442939)
 
   2 primitive cells build up your supercell.
 

 Routine SETGRP: Setting up the symmetry group for a 
 simple cubic supercell.


 Subroutine GETGRP returns: Found 16 space group operations
 (whereof 16 operations were pure point group operations)
 out of a pool of 48 trial point group operations.


The magnetic configuration has the point symmetry D_4h.


 Subroutine INISYM returns: Found 16 space group operations
 (whereof 16 operations are pure point group operations),
 and found     2 'primitive' translations



 KPOINTS: k-points                                

Automatic generation of k-mesh.
Space group operators:
 irot       det(A)        alpha          n_x          n_y          n_z        tau_x        tau_y        tau_z
    1     1.000000     0.000000     1.000000     0.000000     0.000000     0.000000    -0.000000    -0.000000
    2    -1.000000     0.000000     1.000000     0.000000     0.000000     0.000000    -0.000000    -0.000000
    3     1.000000    90.000000     0.000000     0.000000    -1.000000     0.000000    -0.000000    -0.000000
    4    -1.000000    90.000000     0.000000     0.000000    -1.000000     0.000000    -0.000000    -0.000000
    5     1.000000   180.000000     0.000000     0.000000     1.000000     0.000000    -0.000000    -0.000000
    6    -1.000000   180.000000     0.000000     0.000000     1.000000     0.000000    -0.000000    -0.000000
    7     1.000000    90.000000     0.000000     0.000000     1.000000     0.000000    -0.000000    -0.000000
    8    -1.000000    90.000000     0.000000     0.000000     1.000000     0.000000    -0.000000    -0.000000
    9     1.000000   180.000000     1.000000     0.000000     0.000000     0.000000    -0.000000    -0.000000
   10    -1.000000   180.000000     1.000000     0.000000     0.000000     0.000000    -0.000000    -0.000000
   11     1.000000   180.000000     0.707107     0.707107     0.000000     0.000000    -0.000000    -0.000000
   12    -1.000000   180.000000     0.707107     0.707107     0.000000     0.000000    -0.000000    -0.000000
   13     1.000000   180.000000     0.000000     1.000000     0.000000     0.000000    -0.000000    -0.000000
   14    -1.000000   180.000000     0.000000     1.000000     0.000000     0.000000    -0.000000    -0.000000
   15     1.000000   180.000000     0.707107    -0.707107     0.000000     0.000000    -0.000000    -0.000000
   16    -1.000000   180.000000     0.707107    -0.707107     0.000000     0.000000    -0.000000    -0.000000
 
 Subroutine IBZKPT returns following result:
 ===========================================
 
 Found     40 irreducible k-points:
 
 Following reciprocal coordinates:
            Coordinates               Weight
  0.000000  0.000000  0.000000      1.000000
  0.142857  0.000000  0.000000      4.000000
  0.285714  0.000000  0.000000      4.000000
  0.428571  0.000000  0.000000      4.000000
  0.142857  0.142857  0.000000      4.000000
  0.285714  0.142857  0.000000      8.000000
  0.428571  0.142857  0.000000      8.000000
  0.285714  0.285714  0.000000      4.000000
  0.428571  0.285714  0.000000      8.000000
  0.428571  0.428571  0.000000      4.000000
  0.000000  0.000000  0.142857      2.000000
  0.142857  0.000000  0.142857      8.000000
  0.285714  0.000000  0.142857      8.000000
  0.428571  0.000000  0.142857      8.000000
  0.142857  0.142857  0.142857      8.000000
  0.285714  0.142857  0.142857     16.000000
  0.428571  0.142857  0.142857     16.000000
  0.285714  0.285714  0.142857      8.000000
  0.428571  0.285714  0.142857     16.000000
  0.428571  0.428571  0.142857      8.000000
  0.000000  0.000000  0.285714      2.000000
  0.142857  0.000000  0.285714      8.000000
  0.285714  0.000000  0.285714      8.000000
  0.428571  0.000000  0.285714      8.000000
  0.142857  0.142857  0.285714      8.000000
  0.285714  0.142857  0.285714     16.000000
  0.428571  0.142857  0.285714     16.000000
  0.285714  0.285714  0.285714      8.000000
  0.428571  0.285714  0.285714     16.000000
  0.428571  0.428571  0.285714      8.000000
  0.000000  0.000000  0.428571      2.000000
  0.142857  0.000000  0.428571      8.000000
  0.285714  0.000000  0.428571      8.000000
  0.428571  0.000000  0.428571      8.000000
  0.142857  0.142857  0.428571      8.000000
  0.285714  0.142857  0.428571     16.000000
  0.428571  0.142857  0.428571     16.000000
  0.285714  0.285714  0.428571      8.000000
  0.428571  0.285714  0.428571     16.000000
  0.428571  0.428571  0.428571      8.000000
 
 Following cartesian coordinates:
            Coordinates               Weight
  0.000000  0.000000  0.000000      1.000000
  0.138225  0.000000  0.000000      4.000000
  0.276449  0.000000  0.000000      4.000000
  0.414674  0.000000  0.000000      4.000000
  0.138225  0.138225  0.000000      4.000000
  0.276449  0.138225  0.000000      8.000000
  0.414674  0.138225  0.000000      8.000000
  0.276449  0.276449  0.000000      4.000000
  0.414674  0.276449  0.000000      8.000000
  0.414674  0.414674  0.000000      4.000000
  0.000000  0.000000  0.138225      2.000000
  0.138225  0.000000  0.138225      8.000000
  0.276449  0.000000  0.138225      8.000000
  0.414674  0.000000  0.138225      8.000000
  0.138225  0.138225  0.138225      8.000000
  0.276449  0.138225  0.138225     16.000000
  0.414674  0.138225  0.138225     16.000000
  0.276449  0.276449  0.138225      8.000000
  0.414674  0.276449  0.138225     16.000000
  0.414674  0.414674  0.138225      8.000000
  0.000000  0.000000  0.276449      2.000000
  0.138225  0.000000  0.276449      8.000000
  0.276449  0.000000  0.276449      8.000000
  0.414674  0.000000  0.276449      8.000000
  0.138225  0.138225  0.276449      8.000000
  0.276449  0.138225  0.276449     16.000000
  0.414674  0.138225  0.276449     16.000000
  0.276449  0.276449  0.276449      8.000000
  0.414674  0.276449  0.276449     16.000000
  0.414674  0.414674  0.276449      8.000000
  0.000000  0.000000  0.414674      2.000000
  0.138225  0.000000  0.414674      8.000000
  0.276449  0.000000  0.414674      8.000000
  0.414674  0.000000  0.414674      8.000000
  0.138225  0.138225  0.414674      8.000000
  0.276449  0.138225  0.414674     16.000000
  0.414674  0.138225  0.414674     16.000000
  0.276449  0.276449  0.414674      8.000000
  0.414674  0.276449  0.414674     16.000000
  0.414674  0.414674  0.414674      8.000000
 


--------------------------------------------------------------------------------------------------------




 Dimension of arrays:
   k-points           NKPTS =     40   k-points in BZ     NKDIM =     40   number of bands    NBANDS=     84
   number of dos      NEDOS =    301   number of ions     NIONS =     16
   non local maximal  LDIM  =      6   non local SUM 2l+1 LMDIM =     18
   total plane-waves  NPLWV =  46656
   max r-space proj   IRMAX =   4059   max aug-charges    IRDMAX=  25145
   dimension x,y,z NGX =    36 NGY =   36 NGZ =   36
   dimension x,y,z NGXF=    72 NGYF=   72 NGZF=   72
   support grid    NGXF=    72 NGYF=   72 NGZF=   72
   ions per type =               8   6   2
   NGX,Y,Z   is equivalent  to a cutoff of  10.05, 10.05, 10.05 a.u.
   NGXF,Y,Z  is equivalent  to a cutoff of  20.11, 20.11, 20.11 a.u.

 SYSTEM =  Testrun for NiMnIn                      
 POSCAR =  Ni2MnIn                                 

 Startparameter for this run:
   NWRITE =      2    write-flag & timer
   PREC   = normal    normal or accurate (medium, high low for compatibility)
   ISTART =      0    job   : 0-new  1-cont  2-samecut
   ICHARG =      2    charge: 1-file 2-atom 10-const
   ISPIN  =      2    spin polarized calculation?
   LNONCOLLINEAR =      F non collinear calculations
   LSORBIT =      F    spin-orbit coupling
   INIWAV =      1    electr: 0-lowe 1-rand  2-diag
   LASPH  =      F    aspherical Exc in radial PAW
   METAGGA=      F    non-selfconsistent MetaGGA calc.

 Electronic Relaxation 1
   ENCUT  =  550.0 eV  40.42 Ry    6.36 a.u.  11.38 11.38 11.38*2*pi/ulx,y,z
   ENINI  =  550.0     initial cutoff
   ENAUG  =  544.6 eV  augmentation charge cutoff
   NELM   =     60;   NELMIN=  2; NELMDL= -5     # of ELM steps 
   EDIFF  = 0.1E-04   stopping-criterion for ELM
   LREAL  =      T    real-space projection
   NLSPLINE    = F    spline interpolate recip. space projectors
   LCOMPAT=      F    compatible to vasp.4.4
   GGA_COMPAT  = T    GGA compatible to vasp.4.4-vasp.4.6
   LMAXPAW     = -100 max onsite density
   LMAXMIX     =    2 max onsite mixed and CHGCAR
   VOSKOWN=      0    Vosko Wilk Nusair interpolation
   ROPT   =   -0.00050  -0.00050  -0.00050
 Ionic relaxation
   EDIFFG = -.1E-01   stopping-criterion for IOM
   NSW    =   1000    number of steps for IOM
   NBLOCK =      1;   KBLOCK =   1000    inner block; outer block 
   IBRION =      2    ionic relax: 0-MD 1-quasi-New 2-CG
   NFREE  =      1    steps in history (QN), initial steepest desc. (CG)
   ISIF   =      2    stress and relaxation
   IWAVPR =     11    prediction:  0-non 1-charg 2-wave 3-comb
   ISYM   =      2    0-nonsym 1-usesym 2-fastsym
   LCORR  =      T    Harris-Foulkes like correction to forces

   POTIM  = 0.5000    time-step for ionic-motion
   TEIN   =    0.0    initial temperature
   TEBEG  =    0.0;   TEEND  =   0.0 temperature during run
   SMASS  =  -3.00    Nose mass-parameter (am)
   estimated Nose-frequenzy (Omega)   =  0.10E-29 period in steps =****** mass=  -0.810E-27a.u.
   SCALEE = 1.0000    scale energy and forces
   NPACO  =    256;   APACO  = 16.0  distance and # of slots for P.C.
   PSTRESS=    0.0 pullay stress

  Mass of Ions in am
   POMASS =  58.69 54.94114.82
  Ionic Valenz
   ZVAL   =  10.00  7.00  3.00
  Atomic Wigner-Seitz radii
   RWIGS  =  -1.00 -1.00 -1.00
  virtual crystal weights 
   VCA    =   1.00  1.00  1.00
   NELECT =     128.0000    total number of electrons
   NUPDOWN=      -1.0000    fix difference up-down

 DOS related values:
   EMIN   =  10.00;   EMAX   =-10.00  energy-range for DOS
   EFERMI =   0.00
   ISMEAR =     0;   SIGMA  =   0.02  broadening in eV -4-tet -1-fermi 0-gaus

 Electronic relaxation 2 (details)
   IALGO  =     68    algorithm
   LDIAG  =      T    sub-space diagonalisation (order eigenvalues)
   LSUBROT=      F    optimize rotation matrix (better conditioning)
   TURBO    =      0    0=normal 1=particle mesh
   IRESTART =      0    0=no restart 2=restart with 2 vectors
   NREBOOT  =      0    no. of reboots
   NMIN     =      0    reboot dimension
   EREF     =   0.00    reference energy to select bands
   IMIX   =      4    mixing-type and parameters
     AMIX     =   0.40;   BMIX     =  1.00
     AMIX_MAG =   1.60;   BMIX_MAG =  1.00
     AMIN     =   0.10
     WC   =   100.;   INIMIX=   1;  MIXPRE=   1;  MAXMIX= -45

 Intra band minimization:
   WEIMIN = 0.0010     energy-eigenvalue tresh-hold
   EBREAK =  0.30E-07  absolut break condition
   DEPER  =   0.30     relativ break condition  

   TIME   =   0.40     timestep for ELM

  volume/ion in A,a.u.               =      13.19        88.98
  Fermi-wavevector in a.u.,A,eV,Ry     =   1.385923  2.619014 26.133826  1.920782
  Thomas-Fermi vector in A             =   2.510287

 Write flags
   LWAVE        =      F    write WAVECAR
   LDOWNSAMPLE  =      F    k-point downsampling of WAVECAR
   LCHARG       =      T    write CHGCAR
   LVTOT        =      F    write LOCPOT, total local potential
   LVHAR        =      F    write LOCPOT, Hartree potential only
   LELF         =      F    write electronic localiz. function (ELF)
   LORBIT       =     11    0 simple, 1 ext, 2 COOP (PROOUT), +10 PAW based schemes


 Dipole corrections
   LMONO  =      F    monopole corrections only (constant potential shift)
   LDIPOL =      F    correct potential (dipole corrections)
   IDIPOL =      0    1-x, 2-y, 3-z, 4-all directions 
   EPSILON=  1.0000000 bulk dielectric constant

 Exchange correlation treatment:
   GGA     =    --    GGA type
   LEXCH   =     8    internal setting for exchange type
   VOSKOWN=      0    Vosko Wilk Nusair interpolation
   LHFCALC =     F    Hartree Fock is set to
   LHFONE  =     F    Hartree Fock one center treatment
   AEXX    =    0.0000 exact exchange contribution

 Linear response parameters
   LEPSILON=     F    determine dielectric tensor
   LRPA    =     F    only Hartree local field effects (RPA)
   LNABLA  =     F    use nabla operator in PAW spheres
   LVEL    =     F    velocity operator in full k-point grid
   LINTERFAST=   F  fast interpolation
   KINTER  =     0    interpolate to denser k-point grid
   CSHIFT  =0.1000    complex shift for real part using Kramers Kronig
   OMEGAMAX=  -1.0    maximum frequency
   DEG_THRESHOLD= 0.2000000E-02 threshold for treating states as degnerate
   RTIME   =   -0.100 relaxation time in fs
  (WPLASMAI=    0.000 imaginary part of plasma frequency in eV, 0.658/RTIME)
   DFIELD  = 0.0000000 0.0000000 0.0000000 field for delta impulse in time

 Orbital magnetization related:
   ORBITALMAG=     F  switch on orbital magnetization
   LCHIMAG   =     F  perturbation theory with respect to B field
   DQ        =  0.001000  dq finite difference perturbation B field
   LLRAUG    =     F  two centre corrections for induced B field



--------------------------------------------------------------------------------------------------------


 conjugate gradient relaxation of ions
 charge density and potential will be updated during run
 spin polarized calculation
 RMM-DIIS sequential band-by-band and
  variant of blocked Davidson during initial phase
 perform sub-space diagonalisation
    before iterative eigenvector-optimisation
 modified Broyden-mixing scheme, WC =      100.0
 initial mixing is a Kerker type mixing with AMIX =  0.4000 and BMIX =      1.0000
 Hartree-type preconditioning will be used
 using additional bands           20
 real space projection scheme for non local part
 use partial core corrections
 calculate Harris-corrections to forces   (improved forces if not selfconsistent)
 use gradient corrections 
 use of overlap-Matrix (Vanderbilt PP)
 Gauss-broadening in eV      SIGMA  =   0.02


--------------------------------------------------------------------------------------------------------


  energy-cutoff  :      550.00
  volume of cell :      210.97
      direct lattice vectors                 reciprocal lattice vectors
     5.953044294  0.000000000  0.000000000     0.167981280  0.000000000  0.000000000
     0.000000000  5.953044294  0.000000000     0.000000000  0.167981280  0.000000000
     0.000000000  0.000000000  5.953044294     0.000000000  0.000000000  0.167981280

  length of vectors
     5.953044294  5.953044294  5.953044294     0.167981280  0.167981280  0.167981280



 k-points in units of 2pi/SCALE and weight: k-points                                
   0.00000000  0.00000000  0.00000000       0.003
   0.13822460  0.00000000  0.00000000       0.012
   0.27644919  0.00000000  0.00000000       0.012
   0.41467379  0.00000000  0.00000000       0.012
   0.13822460  0.13822460  0.00000000       0.012
   0.27644919  0.13822460  0.00000000       0.023
   0.41467379  0.13822460  0.00000000       0.023
   0.27644919  0.27644919  0.00000000       0.012
   0.41467379  0.27644919  0.00000000       0.023
   0.41467379  0.41467379  0.00000000       0.012
   0.00000000  0.00000000  0.13822460       0.006
   0.13822460  0.00000000  0.13822460       0.023
   0.27644919  0.00000000  0.13822460       0.023
   0.41467379  0.00000000  0.13822460       0.023
   0.13822460  0.13822460  0.13822460       0.023
   0.27644919  0.13822460  0.13822460       0.047
   0.41467379  0.13822460  0.13822460       0.047
   0.27644919  0.27644919  0.13822460       0.023
   0.41467379  0.27644919  0.13822460       0.047
   0.41467379  0.41467379  0.13822460       0.023
   0.00000000  0.00000000  0.27644919       0.006
   0.13822460  0.00000000  0.27644919       0.023
   0.27644919  0.00000000  0.27644919       0.023
   0.41467379  0.00000000  0.27644919       0.023
   0.13822460  0.13822460  0.27644919       0.023
   0.27644919  0.13822460  0.27644919       0.047
   0.41467379  0.13822460  0.27644919       0.047
   0.27644919  0.27644919  0.27644919       0.023
   0.41467379  0.27644919  0.27644919       0.047
   0.41467379  0.41467379  0.27644919       0.023
   0.00000000  0.00000000  0.41467379       0.006
   0.13822460  0.00000000  0.41467379       0.023
   0.27644919  0.00000000  0.41467379       0.023
   0.41467379  0.00000000  0.41467379       0.023
   0.13822460  0.13822460  0.41467379       0.023
   0.27644919  0.13822460  0.41467379       0.047
   0.41467379  0.13822460  0.41467379       0.047
   0.27644919  0.27644919  0.41467379       0.023
   0.41467379  0.27644919  0.41467379       0.047
   0.41467379  0.41467379  0.41467379       0.023

 k-points in reciprocal lattice and weights: k-points                                
   0.00000000  0.00000000  0.00000000       0.003
   0.14285714  0.00000000  0.00000000       0.012
   0.28571429  0.00000000  0.00000000       0.012
   0.42857143  0.00000000  0.00000000       0.012
   0.14285714  0.14285714  0.00000000       0.012
   0.28571429  0.14285714  0.00000000       0.023
   0.42857143  0.14285714  0.00000000       0.023
   0.28571429  0.28571429  0.00000000       0.012
   0.42857143  0.28571429  0.00000000       0.023
   0.42857143  0.42857143  0.00000000       0.012
   0.00000000  0.00000000  0.14285714       0.006
   0.14285714  0.00000000  0.14285714       0.023
   0.28571429  0.00000000  0.14285714       0.023
   0.42857143  0.00000000  0.14285714       0.023
   0.14285714  0.14285714  0.14285714       0.023
   0.28571429  0.14285714  0.14285714       0.047
   0.42857143  0.14285714  0.14285714       0.047
   0.28571429  0.28571429  0.14285714       0.023
   0.42857143  0.28571429  0.14285714       0.047
   0.42857143  0.42857143  0.14285714       0.023
   0.00000000  0.00000000  0.28571429       0.006
   0.14285714  0.00000000  0.28571429       0.023
   0.28571429  0.00000000  0.28571429       0.023
   0.42857143  0.00000000  0.28571429       0.023
   0.14285714  0.14285714  0.28571429       0.023
   0.28571429  0.14285714  0.28571429       0.047
   0.42857143  0.14285714  0.28571429       0.047
   0.28571429  0.28571429  0.28571429       0.023
   0.42857143  0.28571429  0.28571429       0.047
   0.42857143  0.42857143  0.28571429       0.023
   0.00000000  0.00000000  0.42857143       0.006
   0.14285714  0.00000000  0.42857143       0.023
   0.28571429  0.00000000  0.42857143       0.023
   0.42857143  0.00000000  0.42857143       0.023
   0.14285714  0.14285714  0.42857143       0.023
   0.28571429  0.14285714  0.42857143       0.047
   0.42857143  0.14285714  0.42857143       0.047
   0.28571429  0.28571429  0.42857143       0.023
   0.42857143  0.28571429  0.42857143       0.047
   0.42857143  0.42857143  0.42857143       0.023

 position of ions in fractional coordinates (direct lattice) 
   0.25000000  0.25000000  0.26279291
   0.75000000  0.25000000  0.26279291
   0.25000000  0.75000000  0.26279291
   0.75000000  0.75000000  0.26279291
   0.25000000  0.25000000  0.73720709
   0.75000000  0.25000000  0.73720709
   0.25000000  0.75000000  0.73720709
   0.75000000  0.75000000  0.73720709
   0.50000000  0.00000000  0.00000000
   0.00000000  0.50000000  0.00000000
   0.00000000  0.00000000  0.50000000
   0.50000000  0.00000000  0.50000000
   0.50000000  0.50000000  0.50000000
   0.00000000  0.50000000  0.50000000
   0.00000000  0.00000000  0.00000000
   0.50000000  0.50000000  0.00000000

 position of ions in cartesian coordinates  (Angst):
   1.48826107  1.48826107  1.56441786
   4.46478322  1.48826107  1.56441786
   1.48826107  4.46478322  1.56441786
   4.46478322  4.46478322  1.56441786
   1.48826107  1.48826107  4.38862644
   4.46478322  1.48826107  4.38862644
   1.48826107  4.46478322  4.38862644
   4.46478322  4.46478322  4.38862644
   2.97652215  0.00000000  0.00000000
   0.00000000  2.97652215  0.00000000
   0.00000000  0.00000000  2.97652215
   2.97652215  0.00000000  2.97652215
   2.97652215  2.97652215  2.97652215
   0.00000000  2.97652215  2.97652215
   0.00000000  0.00000000  0.00000000
   2.97652215  2.97652215  0.00000000



--------------------------------------------------------------------------------------------------------


 k-point  1 :   0.0000 0.0000 0.0000  plane waves:    6187
 k-point  2 :   0.1429 0.0000 0.0000  plane waves:    6163
 k-point  3 :   0.2857 0.0000 0.0000  plane waves:    6167
 k-point  4 :   0.4286 0.0000 0.0000  plane waves:    6190
 k-point  5 :   0.1429 0.1429 0.0000  plane waves:    6194
 k-point  6 :   0.2857 0.1429 0.0000  plane waves:    6184
 k-point  7 :   0.4286 0.1429 0.0000  plane waves:    6198
 k-point  8 :   0.2857 0.2857 0.0000  plane waves:    6166
 k-point  9 :   0.4286 0.2857 0.0000  plane waves:    6179
 k-point 10 :   0.4286 0.4286 0.0000  plane waves:    6174
 k-point 11 :   0.0000 0.0000 0.1429  plane waves:    6163
 k-point 12 :   0.1429 0.0000 0.1429  plane waves:    6194
 k-point 13 :   0.2857 0.0000 0.1429  plane waves:    6184
 k-point 14 :   0.4286 0.0000 0.1429  plane waves:    6198
 k-point 15 :   0.1429 0.1429 0.1429  plane waves:    6193
 k-point 16 :   0.2857 0.1429 0.1429  plane waves:    6186
 k-point 17 :   0.4286 0.1429 0.1429  plane waves:    6176
 k-point 18 :   0.2857 0.2857 0.1429  plane waves:    6179
 k-point 19 :   0.4286 0.2857 0.1429  plane waves:    6181
 k-point 20 :   0.4286 0.4286 0.1429  plane waves:    6175
 k-point 21 :   0.0000 0.0000 0.2857  plane waves:    6167
 k-point 22 :   0.1429 0.0000 0.2857  plane waves:    6184
 k-point 23 :   0.2857 0.0000 0.2857  plane waves:    6166
 k-point 24 :   0.4286 0.0000 0.2857  plane waves:    6179
 k-point 25 :   0.1429 0.1429 0.2857  plane waves:    6186
 k-point 26 :   0.2857 0.1429 0.2857  plane waves:    6179
 k-point 27 :   0.4286 0.1429 0.2857  plane waves:    6181
 k-point 28 :   0.2857 0.2857 0.2857  plane waves:    6181
 k-point 29 :   0.4286 0.2857 0.2857  plane waves:    6194
 k-point 30 :   0.4286 0.4286 0.2857  plane waves:    6144
 k-point 31 :   0.0000 0.0000 0.4286  plane waves:    6190
 k-point 32 :   0.1429 0.0000 0.4286  plane waves:    6198
 k-point 33 :   0.2857 0.0000 0.4286  plane waves:    6179
 k-point 34 :   0.4286 0.0000 0.4286  plane waves:    6174
 k-point 35 :   0.1429 0.1429 0.4286  plane waves:    6176
 k-point 36 :   0.2857 0.1429 0.4286  plane waves:    6181
 k-point 37 :   0.4286 0.1429 0.4286  plane waves:    6175
 k-point 38 :   0.2857 0.2857 0.4286  plane waves:    6194
 k-point 39 :   0.4286 0.2857 0.4286  plane waves:    6144
 k-point 40 :   0.4286 0.4286 0.4286  plane waves:    6137

 maximum and minimum number of plane-waves per node :      6198     6137

 maximum number of plane-waves:      6198
 maximum index in each direction: 
   IXMAX=   11   IYMAX=   11   IZMAX=   11
   IXMIN=  -11   IYMIN=  -11   IZMIN=  -11


 serial   3D FFT for wavefunctions
 parallel 3D FFT for charge:
    minimum data exchange during FFTs selected (reduces bandwidth)


 total amount of memory used by VASP MPI-rank0   103323. kBytes
=======================================================================

   base      :      30000. kBytes
   nonlr-proj:       6816. kBytes
   fftplans  :       1269. kBytes
   grid      :       6573. kBytes
   one-center:        497. kBytes
   wavefun   :      58168. kBytes

     INWAV:  cpu time    0.0000: real time    0.0000
 Broyden mixing: mesh for mixing (old mesh)
   NGX = 23   NGY = 23   NGZ = 23
  (NGX  = 72   NGY  = 72   NGZ  = 72)
  gives a total of  12167 points

 initial charge density was supplied:
 charge density of overlapping atoms calculated
 number of electron     128.0000000 magnetization       8.8000000
 keeping initial charge density in first step


--------------------------------------------------------------------------------------------------------


 Maximum index for non-local projection operator         3887
 Maximum index for augmentation-charges         2127 (set IRDMAX)


--------------------------------------------------------------------------------------------------------


 First call to EWALD:  gamma=   0.298
 Maximum number of real-space cells 3x 3x 3
 Maximum number of reciprocal cells 3x 3x 3

    FEWALD:  cpu time    0.0021: real time    0.0021


--------------------------------------- Iteration      1(   1)  ---------------------------------------


    POTLOK:  cpu time    0.1086: real time    0.1170
    SETDIJ:  cpu time    0.0378: real time    0.0378
     EDDAV:  cpu time   23.4841: real time   23.5097
       DOS:  cpu time    0.0037: real time    0.0037
    --------------------------------------------
      LOOP:  cpu time   23.6341: real time   23.6682

 eigenvalue-minimisations  : 13440
 total energy-change (2. order) : 0.1067551E+04  (-0.5418301E+04)
 number of electron     128.0000000 magnetization       8.8000000
 augmentation part      128.0000000 magnetization       8.8000000

 Free energy of the ion-electron system (eV)
  ---------------------------------------------------
  alpha Z        PSCENC =       533.37175684
  Ewald energy   TEWEN  =     -9339.29496324
  -Hartree energ DENC   =     -3094.68481747
  -exchange      EXHF   =         0.00000000
  -V(xc)+E(xc)   XCENC  =        78.21861752
  PAW double counting   =     10320.96726947   -10647.99417394
  entropy T*S    EENTRO =        -0.00119347
  eigenvalues    EBANDS =      1987.50616301
  atomic energy  EATOM  =     11229.46195210
  Solvation  Ediel_sol  =         0.00000000
  ---------------------------------------------------
  free energy    TOTEN  =      1067.55061083 eV

  energy without entropy =     1067.55180430  energy(sigma->0) =     1067.55120757


--------------------------------------------------------------------------------------------------------




--------------------------------------- Iteration      1(   2)  ---------------------------------------


     EDDAV:  cpu time   23.3584: real time   23.3869
       DOS:  cpu time    0.0036: real time    0.0037
    --------------------------------------------
      LOOP:  cpu time   23.3620: real time   23.3906

 eigenvalue-minimisations  : 13440
 total energy-change (2. order) :-0.1066261E+04  (-0.1033384E+04)
 number of electron     128.0000000 magnetization       8.8000000
 augmentation part      128.0000000 magnetization       8.8000000

 Free energy of the ion-electron system (eV)
  ---------------------------------------------------
  alpha Z        PSCENC =       533.37175684
  Ewald energy   TEWEN  =     -9339.29496324
  -Hartree energ DENC   =     -3094.68481747
  -exchange      EXHF   =         0.00000000
  -V(xc)+E(xc)   XCENC  =        78.21861752
  PAW double counting   =     10320.96726947   -10647.99417394
  entropy T*S    EENTRO =        -0.00244742
  eigenvalues    EBANDS =       921.24681132
  atomic energy  EATOM  =     11229.46195210
  Solvation  Ediel_sol  =         0.00000000
  ---------------------------------------------------
  free energy    TOTEN  =         1.29000519 eV

  energy without entropy =        1.29245261  energy(sigma->0) =        1.29122890


--------------------------------------------------------------------------------------------------------




--------------------------------------- Iteration      1(   3)  ---------------------------------------


     EDDAV:  cpu time   25.7506: real time   25.7832
       DOS:  cpu time    0.0037: real time    0.0037
    --------------------------------------------
      LOOP:  cpu time   25.7543: real time   25.7869

 eigenvalue-minimisations  : 15108
 total energy-change (2. order) :-0.1115517E+03  (-0.9965272E+02)
 number of electron     128.0000000 magnetization       8.8000000
 augmentation part      128.0000000 magnetization       8.8000000

 Free energy of the ion-electron system (eV)
  ---------------------------------------------------
  alpha Z        PSCENC =       533.37175684
  Ewald energy   TEWEN  =     -9339.29496324
  -Hartree energ DENC   =     -3094.68481747
  -exchange      EXHF   =         0.00000000
  -V(xc)+E(xc)   XCENC  =        78.21861752
  PAW double counting   =     10320.96726947   -10647.99417394
  entropy T*S    EENTRO =        -0.00189736
  eigenvalues    EBANDS =       809.69458031
  atomic energy  EATOM  =     11229.46195210
  Solvation  Ediel_sol  =         0.00000000
  ---------------------------------------------------
  free energy    TOTEN  =      -110.26167576 eV

  energy without entropy =     -110.25977840  energy(sigma->0) =     -110.26072708


--------------------------------------------------------------------------------------------------------




--------------------------------------- Iteration      1(   4)  ---------------------------------------


     EDDAV:  cpu time   32.2627: real time   32.3000
       DOS:  cpu time    0.0037: real time    0.0038
    --------------------------------------------
      LOOP:  cpu time   32.2664: real time   32.3038

 eigenvalue-minimisations  : 19956
 total energy-change (2. order) :-0.6763342E+01  (-0.6411645E+01)
 number of electron     128.0000000 magnetization       8.8000000
 augmentation part      128.0000000 magnetization       8.8000000

 Free energy of the ion-electron system (eV)
  ---------------------------------------------------
  alpha Z        PSCENC =       533.37175684
  Ewald energy   TEWEN  =     -9339.29496324
  -Hartree energ DENC   =     -3094.68481747
  -exchange      EXHF   =         0.00000000
  -V(xc)+E(xc)   XCENC  =        78.21861752
  PAW double counting   =     10320.96726947   -10647.99417394
  entropy T*S    EENTRO =        -0.00248497
  eigenvalues    EBANDS =       802.93182630
  atomic energy  EATOM  =     11229.46195210
  Solvation  Ediel_sol  =         0.00000000
  ---------------------------------------------------
  free energy    TOTEN  =      -117.02501739 eV

  energy without entropy =     -117.02253241  energy(sigma->0) =     -117.02377490


--------------------------------------------------------------------------------------------------------




--------------------------------------- Iteration      1(   5)  ---------------------------------------


     EDDAV:  cpu time   31.9701: real time   32.0072
       DOS:  cpu time    0.0035: real time    0.0037
    CHARGE:  cpu time    0.7097: real time    0.7103
    MIXING:  cpu time    0.0015: real time    0.0016
    --------------------------------------------
      LOOP:  cpu time   32.6849: real time   32.7228

 eigenvalue-minimisations  : 19656
 total energy-change (2. order) :-0.2325375E+00  (-0.2313164E+00)
 number of electron     127.9999550 magnetization       7.9668624
 augmentation part       60.5836201 magnetization       4.9153334

 Broyden mixing:
  rms(total) = 0.34439E+01    rms(broyden)= 0.34438E+01
  rms(prec ) = 0.53648E+01
  weight for this iteration     100.00

 Free energy of the ion-electron system (eV)
  ---------------------------------------------------
  alpha Z        PSCENC =       533.37175684
  Ewald energy   TEWEN  =     -9339.29496324
  -Hartree energ DENC   =     -3094.68481747
  -exchange      EXHF   =         0.00000000
  -V(xc)+E(xc)   XCENC  =        78.21861752
  PAW double counting   =     10320.96726947   -10647.99417394
  entropy T*S    EENTRO =        -0.00246623
  eigenvalues    EBANDS =       802.69927005
  atomic energy  EATOM  =     11229.46195210
  Solvation  Ediel_sol  =         0.00000000
  ---------------------------------------------------
  free energy    TOTEN  =      -117.25755490 eV

  energy without entropy =     -117.25508866  energy(sigma->0) =     -117.25632178


--------------------------------------------------------------------------------------------------------




--------------------------------------- Iteration      1(   6)  ---------------------------------------


    POTLOK:  cpu time    0.1011: real time    0.1096
    SETDIJ:  cpu time    0.0362: real time    0.0362
    EDDIAG:  cpu time    3.2375: real time    3.2419
  RMM-DIIS:  cpu time   10.5279: real time   10.5403
    ORTHCH:  cpu time    0.6233: real time    0.6239
       DOS:  cpu time    0.0038: real time    0.0040
    CHARGE:  cpu time    0.7240: real time    0.7247
    MIXING:  cpu time    0.0016: real time    0.0017
    --------------------------------------------
      LOOP:  cpu time   15.2555: real time   15.2823

 eigenvalue-minimisations  : 13440
 total energy-change (2. order) : 0.6220636E+01  (-0.1714800E+02)
 number of electron     127.9999653 magnetization       7.3817045
 augmentation part       69.3733355 magnetization       6.1180709

 Broyden mixing:
  rms(total) = 0.48933E+01    rms(broyden)= 0.48932E+01
  rms(prec ) = 0.67785E+01
  weight for this iteration     100.00

 eigenvalues of (default mixing * dielectric matrix)
  average eigenvalue GAMMA=   0.2094
  0.2094

 Free energy of the ion-electron system (eV)
  ---------------------------------------------------
  alpha Z        PSCENC =       533.37175684
  Ewald energy   TEWEN  =     -9339.29496324
  -Hartree energ DENC   =     -2862.10715338
  -exchange      EXHF   =         0.00000000
  -V(xc)+E(xc)   XCENC  =        66.44050901
  PAW double counting   =     11134.49580797   -11428.15768548
  entropy T*S    EENTRO =        -0.00573844
  eigenvalues    EBANDS =       554.75859547
  atomic energy  EATOM  =     11229.46195210
  Solvation  Ediel_sol  =         0.00000000
  ---------------------------------------------------
  free energy    TOTEN  =      -111.03691915 eV

  energy without entropy =     -111.03118071  energy(sigma->0) =     -111.03404993


--------------------------------------------------------------------------------------------------------




--------------------------------------- Iteration      1(   7)  ---------------------------------------


    POTLOK:  cpu time    0.0979: real time    0.0980
    SETDIJ:  cpu time    0.0361: real time    0.0362
    EDDIAG:  cpu time    3.2477: real time    3.2514
  RMM-DIIS:  cpu time   10.5025: real time   10.5143
    ORTHCH:  cpu time    0.6249: real time    0.6255
       DOS:  cpu time    0.0037: real time    0.0039
    CHARGE:  cpu time    0.7078: real time    0.7084
    MIXING:  cpu time    0.0017: real time    0.0017
    --------------------------------------------
      LOOP:  cpu time   15.2222: real time   15.2394

 eigenvalue-minimisations  : 13448
 total energy-change (2. order) :-0.2321413E+00  (-0.3515116E+01)
 number of electron     127.9999475 magnetization       7.2990159
 augmentation part       70.6182662 magnetization       4.1634932

 Broyden mixing:
  rms(total) = 0.33475E+01    rms(broyden)= 0.33473E+01
  rms(prec ) = 0.56374E+01
  weight for this iteration     100.00

 eigenvalues of (default mixing * dielectric matrix)
  average eigenvalue GAMMA=   0.4295
  0.4295  0.4295

 Free energy of the ion-electron system (eV)
  ---------------------------------------------------
  alpha Z        PSCENC =       533.37175684
  Ewald energy   TEWEN  =     -9339.29496324
  -Hartree energ DENC   =     -2840.40709496
  -exchange      EXHF   =         0.00000000
  -V(xc)+E(xc)   XCENC  =        66.12614475
  PAW double counting   =     11389.09822881   -11685.39799736
  entropy T*S    EENTRO =        -0.00160918
  eigenvalues    EBANDS =       535.77452181
  atomic energy  EATOM  =     11229.46195210
  Solvation  Ediel_sol  =         0.00000000
  ---------------------------------------------------
  free energy    TOTEN  =      -111.26906043 eV

  energy without entropy =     -111.26745125  energy(sigma->0) =     -111.26825584


--------------------------------------------------------------------------------------------------------




--------------------------------------- Iteration      1(   8)  ---------------------------------------


    POTLOK:  cpu time    0.0973: real time    0.0976
    SETDIJ:  cpu time    0.0363: real time    0.0363
    EDDIAG:  cpu time    3.2560: real time    3.2602
  RMM-DIIS:  cpu time   10.5134: real time   10.5252
    ORTHCH:  cpu time    0.6237: real time    0.6247
       DOS:  cpu time    0.0036: real time    0.0038
    CHARGE:  cpu time    0.7301: real time    0.7308
    MIXING:  cpu time    0.0018: real time    0.0018
    --------------------------------------------
      LOOP:  cpu time   15.2622: real time   15.2803

 eigenvalue-minimisations  : 13451
 total energy-change (2. order) : 0.6901382E+01  (-0.2304879E+01)
 number of electron     127.9999592 magnetization       7.5614993
 augmentation part       67.6130931 magnetization       5.7046140

 Broyden mixing:
  rms(total) = 0.17859E+01    rms(broyden)= 0.17858E+01
  rms(prec ) = 0.31303E+01
  weight for this iteration     100.00

 eigenvalues of (default mixing * dielectric matrix)
  average eigenvalue GAMMA=   0.4803
  0.7079  0.5349  0.1982

 Free energy of the ion-electron system (eV)
  ---------------------------------------------------
  alpha Z        PSCENC =       533.37175684
  Ewald energy   TEWEN  =     -9339.29496324
  -Hartree energ DENC   =     -2906.04894159
  -exchange      EXHF   =         0.00000000
  -V(xc)+E(xc)   XCENC  =        71.15774088
  PAW double counting   =     11815.79986437   -12141.27450506
  entropy T*S    EENTRO =        -0.00467575
  eigenvalues    EBANDS =       632.46409258
  atomic energy  EATOM  =     11229.46195210
  Solvation  Ediel_sol  =         0.00000000
  ---------------------------------------------------
  free energy    TOTEN  =      -104.36767886 eV

  energy without entropy =     -104.36300312  energy(sigma->0) =     -104.36534099


--------------------------------------------------------------------------------------------------------




--------------------------------------- Iteration      1(   9)  ---------------------------------------


    POTLOK:  cpu time    0.0976: real time    0.0978
    SETDIJ:  cpu time    0.0362: real time    0.0362
    EDDIAG:  cpu time    3.2731: real time    3.2768
  RMM-DIIS:  cpu time   10.5766: real time   10.5887
    ORTHCH:  cpu time    0.6232: real time    0.6237
       DOS:  cpu time    0.0037: real time    0.0039
    CHARGE:  cpu time    0.7150: real time    0.7157
    MIXING:  cpu time    0.0018: real time    0.0018
    --------------------------------------------
      LOOP:  cpu time   15.3270: real time   15.3446

 eigenvalue-minimisations  : 13588
 total energy-change (2. order) : 0.7358140E+00  (-0.3966244E+00)
 number of electron     127.9999579 magnetization       8.1609487
 augmentation part       67.1431953 magnetization       5.5916082

 Broyden mixing:
  rms(total) = 0.12792E+01    rms(broyden)= 0.12791E+01
  rms(prec ) = 0.19897E+01
  weight for this iteration     100.00

 eigenvalues of (default mixing * dielectric matrix)
  average eigenvalue GAMMA=   0.5262
  1.0151  0.5777  0.3318  0.1803

 Free energy of the ion-electron system (eV)
  ---------------------------------------------------
  alpha Z        PSCENC =       533.37175684
  Ewald energy   TEWEN  =     -9339.29496324
  -Hartree energ DENC   =     -2910.48884101
  -exchange      EXHF   =         0.00000000
  -V(xc)+E(xc)   XCENC  =        72.27655576
  PAW double counting   =     12058.56602187   -12390.93877448
  entropy T*S    EENTRO =        -0.00253076
  eigenvalues    EBANDS =       643.41695806
  atomic energy  EATOM  =     11229.46195210
  Solvation  Ediel_sol  =         0.00000000
  ---------------------------------------------------
  free energy    TOTEN  =      -103.63186485 eV

  energy without entropy =     -103.62933409  energy(sigma->0) =     -103.63059947


--------------------------------------------------------------------------------------------------------




--------------------------------------- Iteration      1(  10)  ---------------------------------------


    POTLOK:  cpu time    0.0973: real time    0.0985
    SETDIJ:  cpu time    0.0360: real time    0.0360
    EDDIAG:  cpu time    3.2673: real time    3.2723
  RMM-DIIS:  cpu time   10.6971: real time   10.7135
    ORTHCH:  cpu time    0.6231: real time    0.6239
       DOS:  cpu time    0.0034: real time    0.0034
    CHARGE:  cpu time    0.7095: real time    0.7104
    MIXING:  cpu time    0.0020: real time    0.0020
    --------------------------------------------
      LOOP:  cpu time   15.4357: real time   15.4600

 eigenvalue-minimisations  : 13443
 total energy-change (2. order) : 0.5019451E+00  (-0.1515986E+00)
 number of electron     127.9999553 magnetization       8.8334340
 augmentation part       67.8451664 magnetization       6.2914142

 Broyden mixing:
  rms(total) = 0.61170E+00    rms(broyden)= 0.61168E+00
  rms(prec ) = 0.87610E+00
  weight for this iteration     100.00

 eigenvalues of (default mixing * dielectric matrix)
  average eigenvalue GAMMA=   0.5653
  1.0442  0.8241  0.5215  0.2459  0.1906

 Free energy of the ion-electron system (eV)
  ---------------------------------------------------
  alpha Z        PSCENC =       533.37175684
  Ewald energy   TEWEN  =     -9339.29496324
  -Hartree energ DENC   =     -2894.94058036
  -exchange      EXHF   =         0.00000000
  -V(xc)+E(xc)   XCENC  =        72.86159421
  PAW double counting   =     12343.98382346   -12679.00733229
  entropy T*S    EENTRO =        -0.00153830
  eigenvalues    EBANDS =       630.43536785
  atomic energy  EATOM  =     11229.46195210
  Solvation  Ediel_sol  =         0.00000000
  ---------------------------------------------------
  free energy    TOTEN  =      -103.12991973 eV

  energy without entropy =     -103.12838143  energy(sigma->0) =     -103.12915058


--------------------------------------------------------------------------------------------------------




--------------------------------------- Iteration      1(  11)  ---------------------------------------


    POTLOK:  cpu time    0.0976: real time    0.0977
    SETDIJ:  cpu time    0.0363: real time    0.0363
    EDDIAG:  cpu time    3.2849: real time    3.2900
  RMM-DIIS:  cpu time   10.6707: real time   10.6871
    ORTHCH:  cpu time    0.6226: real time    0.6235
       DOS:  cpu time    0.0037: real time    0.0037
    CHARGE:  cpu time    0.7094: real time    0.7101
    MIXING:  cpu time    0.0020: real time    0.0020
    --------------------------------------------
      LOOP:  cpu time   15.4272: real time   15.4506

 eigenvalue-minimisations  : 13739
 total energy-change (2. order) :-0.5139583E-02  (-0.3937428E-01)
 number of electron     127.9999568 magnetization       9.2619516
 augmentation part       67.6180588 magnetization       6.6007802

 Broyden mixing:
  rms(total) = 0.32259E+00    rms(broyden)= 0.32257E+00
  rms(prec ) = 0.41575E+00
  weight for this iteration     100.00

 eigenvalues of (default mixing * dielectric matrix)
  average eigenvalue GAMMA=   0.7199
  1.8500  0.7082  0.7082  0.6230  0.2398  0.1901

 Free energy of the ion-electron system (eV)
  ---------------------------------------------------
  alpha Z        PSCENC =       533.37175684
  Ewald energy   TEWEN  =     -9339.29496324
  -Hartree energ DENC   =     -2895.35906525
  -exchange      EXHF   =         0.00000000
  -V(xc)+E(xc)   XCENC  =        74.87712677
  PAW double counting   =     12616.46661355   -12957.12188469
  entropy T*S    EENTRO =        -0.00190219
  eigenvalues    EBANDS =       634.46530679
  atomic energy  EATOM  =     11229.46195210
  Solvation  Ediel_sol  =         0.00000000
  ---------------------------------------------------
  free energy    TOTEN  =      -103.13505931 eV

  energy without entropy =     -103.13315712  energy(sigma->0) =     -103.13410822


--------------------------------------------------------------------------------------------------------




--------------------------------------- Iteration      1(  12)  ---------------------------------------


    POTLOK:  cpu time    0.0973: real time    0.0974
    SETDIJ:  cpu time    0.0362: real time    0.0362
    EDDIAG:  cpu time    3.2830: real time    3.2880
  RMM-DIIS:  cpu time   10.8310: real time   10.8492
    ORTHCH:  cpu time    0.6244: real time    0.6253
       DOS:  cpu time    0.0037: real time    0.0037
    CHARGE:  cpu time    0.7109: real time    0.7118
    MIXING:  cpu time    0.0021: real time    0.0021
    --------------------------------------------
      LOOP:  cpu time   15.5885: real time   15.6138

 eigenvalue-minimisations  : 13737
 total energy-change (2. order) :-0.4620583E-01  (-0.2218915E-01)
 number of electron     127.9999565 magnetization       9.4655144
 augmentation part       67.7135134 magnetization       6.9323773

 Broyden mixing:
  rms(total) = 0.32082E+00    rms(broyden)= 0.32082E+00
  rms(prec ) = 0.51271E+00
  weight for this iteration     100.00

 eigenvalues of (default mixing * dielectric matrix)
  average eigenvalue GAMMA=   0.6995
  2.1142  0.7631  0.7631  0.5733  0.1896  0.2626  0.2305

 Free energy of the ion-electron system (eV)
  ---------------------------------------------------
  alpha Z        PSCENC =       533.37175684
  Ewald energy   TEWEN  =     -9339.29496324
  -Hartree energ DENC   =     -2892.12868605
  -exchange      EXHF   =         0.00000000
  -V(xc)+E(xc)   XCENC  =        75.38296564
  PAW double counting   =     12773.99253946   -13116.65651886
  entropy T*S    EENTRO =        -0.00214528
  eigenvalues    EBANDS =       632.69183426
  atomic energy  EATOM  =     11229.46195210
  Solvation  Ediel_sol  =         0.00000000
  ---------------------------------------------------
  free energy    TOTEN  =      -103.18126513 eV

  energy without entropy =     -103.17911985  energy(sigma->0) =     -103.18019249


--------------------------------------------------------------------------------------------------------




--------------------------------------- Iteration      1(  13)  ---------------------------------------


    POTLOK:  cpu time    0.0980: real time    0.0982
    SETDIJ:  cpu time    0.0361: real time    0.0361
    EDDIAG:  cpu time    3.2949: real time    3.3003
  RMM-DIIS:  cpu time   10.9966: real time   11.0162
    ORTHCH:  cpu time    0.6233: real time    0.6243
       DOS:  cpu time    0.0036: real time    0.0036
    CHARGE:  cpu time    0.7092: real time    0.7101
    MIXING:  cpu time    0.0023: real time    0.0023
    --------------------------------------------
      LOOP:  cpu time   15.7640: real time   15.7912

 eigenvalue-minimisations  : 13849
 total energy-change (2. order) : 0.4640415E-01  (-0.5912725E-02)
 number of electron     127.9999567 magnetization       9.4786204
 augmentation part       67.7036268 magnetization       6.8380369

 Broyden mixing:
  rms(total) = 0.12195E+00    rms(broyden)= 0.12194E+00
  rms(prec ) = 0.15141E+00
  weight for this iteration     100.00

 eigenvalues of (default mixing * dielectric matrix)
  average eigenvalue GAMMA=   0.7618
  2.2690  0.9210  0.9210  0.6406  0.6406  0.1904  0.2332  0.2785

 Free energy of the ion-electron system (eV)
  ---------------------------------------------------
  alpha Z        PSCENC =       533.37175684
  Ewald energy   TEWEN  =     -9339.29496324
  -Hartree energ DENC   =     -2890.81954951
  -exchange      EXHF   =         0.00000000
  -V(xc)+E(xc)   XCENC  =        75.61033318
  PAW double counting   =     12873.33052259   -13217.40969583
  entropy T*S    EENTRO =        -0.00161088
  eigenvalues    EBANDS =       632.61639376
  atomic energy  EATOM  =     11229.46195210
  Solvation  Ediel_sol  =         0.00000000
  ---------------------------------------------------
  free energy    TOTEN  =      -103.13486098 eV

  energy without entropy =     -103.13325011  energy(sigma->0) =     -103.13405555


--------------------------------------------------------------------------------------------------------




--------------------------------------- Iteration      1(  14)  ---------------------------------------


    POTLOK:  cpu time    0.1105: real time    0.1111
    SETDIJ:  cpu time    0.0384: real time    0.0384
    EDDIAG:  cpu time    3.3708: real time    3.3745
  RMM-DIIS:  cpu time   11.8021: real time   11.8149
    ORTHCH:  cpu time    0.6230: real time    0.6237
       DOS:  cpu time    0.0037: real time    0.0039
    CHARGE:  cpu time    0.7165: real time    0.7172
    MIXING:  cpu time    0.0024: real time    0.0024
    --------------------------------------------
      LOOP:  cpu time   16.6675: real time   16.6860

 eigenvalue-minimisations  : 14666
 total energy-change (2. order) : 0.1856055E-02  (-0.2659877E-02)
 number of electron     127.9999568 magnetization       9.4607105
 augmentation part       67.7167704 magnetization       6.7729022

 Broyden mixing:
  rms(total) = 0.55407E-01    rms(broyden)= 0.55404E-01
  rms(prec ) = 0.73856E-01
  weight for this iteration     100.00

 eigenvalues of (default mixing * dielectric matrix)
  average eigenvalue GAMMA=   0.8505
  2.4285  1.6164  0.8137  0.8137  0.6801  0.5907  0.1903  0.2344  0.2870

 Free energy of the ion-electron system (eV)
  ---------------------------------------------------
  alpha Z        PSCENC =       533.37175684
  Ewald energy   TEWEN  =     -9339.29496324
  -Hartree energ DENC   =     -2889.70129514
  -exchange      EXHF   =         0.00000000
  -V(xc)+E(xc)   XCENC  =        75.60487594
  PAW double counting   =     12932.77690946   -13277.33073960
  entropy T*S    EENTRO =        -0.00165755
  eigenvalues    EBANDS =       631.98015627
  atomic energy  EATOM  =     11229.46195210
  Solvation  Ediel_sol  =         0.00000000
  ---------------------------------------------------
  free energy    TOTEN  =      -103.13300493 eV

  energy without entropy =     -103.13134737  energy(sigma->0) =     -103.13217615


--------------------------------------------------------------------------------------------------------




--------------------------------------- Iteration      1(  15)  ---------------------------------------


    POTLOK:  cpu time    0.0976: real time    0.0978
    SETDIJ:  cpu time    0.0362: real time    0.0363
    EDDIAG:  cpu time    3.3148: real time    3.3189
  RMM-DIIS:  cpu time   11.4554: real time   11.4698
    ORTHCH:  cpu time    0.6233: real time    0.6240
       DOS:  cpu time    0.0034: real time    0.0035
    CHARGE:  cpu time    0.7168: real time    0.7174
    MIXING:  cpu time    0.0028: real time    0.0028
    --------------------------------------------
      LOOP:  cpu time   16.2503: real time   16.2705

 eigenvalue-minimisations  : 14593
 total energy-change (2. order) : 0.7102548E-03  (-0.4217427E-03)
 number of electron     127.9999567 magnetization       9.4732296
 augmentation part       67.7313140 magnetization       6.8010088

 Broyden mixing:
  rms(total) = 0.24600E-01    rms(broyden)= 0.24600E-01
  rms(prec ) = 0.27439E-01
  weight for this iteration     100.00

 eigenvalues of (default mixing * dielectric matrix)
  average eigenvalue GAMMA=   0.8783
  2.5194  1.8082  0.9268  0.9268  0.6642  0.6642  0.5604  0.1904  0.2344  0.2885

 Free energy of the ion-electron system (eV)
  ---------------------------------------------------
  alpha Z        PSCENC =       533.37175684
  Ewald energy   TEWEN  =     -9339.29496324
  -Hartree energ DENC   =     -2889.45686220
  -exchange      EXHF   =         0.00000000
  -V(xc)+E(xc)   XCENC  =        75.54398060
  PAW double counting   =     12946.36123755   -13290.81416490
  entropy T*S    EENTRO =        -0.00165032
  eigenvalues    EBANDS =       631.69641890
  atomic energy  EATOM  =     11229.46195210
  Solvation  Ediel_sol  =         0.00000000
  ---------------------------------------------------
  free energy    TOTEN  =      -103.13229467 eV

  energy without entropy =     -103.13064436  energy(sigma->0) =     -103.13146951


--------------------------------------------------------------------------------------------------------




--------------------------------------- Iteration      1(  16)  ---------------------------------------


    POTLOK:  cpu time    0.0977: real time    0.0980
    SETDIJ:  cpu time    0.0361: real time    0.0361
    EDDIAG:  cpu time    3.3150: real time    3.3193
  RMM-DIIS:  cpu time   11.9320: real time   11.9481
    ORTHCH:  cpu time    0.6245: real time    0.6258
       DOS:  cpu time    0.0037: real time    0.0039
    CHARGE:  cpu time    0.7145: real time    0.7152
    MIXING:  cpu time    0.0027: real time    0.0027
    --------------------------------------------
      LOOP:  cpu time   16.7262: real time   16.7492

 eigenvalue-minimisations  : 14951
 total energy-change (2. order) :-0.1009415E-03  (-0.6603207E-04)
 number of electron     127.9999567 magnetization       9.4787331
 augmentation part       67.7350031 magnetization       6.8081494

 Broyden mixing:
  rms(total) = 0.10477E-01    rms(broyden)= 0.10477E-01
  rms(prec ) = 0.14035E-01
  weight for this iteration     100.00

 eigenvalues of (default mixing * dielectric matrix)
  average eigenvalue GAMMA=   0.9329
  2.3889  2.3889  1.0484  1.0484  0.7465  0.7465  0.5905  0.5905  0.1904  0.2344
  0.2888

 Free energy of the ion-electron system (eV)
  ---------------------------------------------------
  alpha Z        PSCENC =       533.37175684
  Ewald energy   TEWEN  =     -9339.29496324
  -Hartree energ DENC   =     -2889.53529702
  -exchange      EXHF   =         0.00000000
  -V(xc)+E(xc)   XCENC  =        75.60217265
  PAW double counting   =     12947.08703017   -13291.46045534
  entropy T*S    EENTRO =        -0.00166403
  eigenvalues    EBANDS =       631.63707224
  atomic energy  EATOM  =     11229.46195210
  Solvation  Ediel_sol  =         0.00000000
  ---------------------------------------------------
  free energy    TOTEN  =      -103.13239561 eV

  energy without entropy =     -103.13073159  energy(sigma->0) =     -103.13156360


--------------------------------------------------------------------------------------------------------




--------------------------------------- Iteration      1(  17)  ---------------------------------------


    POTLOK:  cpu time    0.0976: real time    0.0978
    SETDIJ:  cpu time    0.0360: real time    0.0360
    EDDIAG:  cpu time    3.3288: real time    3.3331
  RMM-DIIS:  cpu time   10.8760: real time   10.8895
    ORTHCH:  cpu time    0.6261: real time    0.6267
       DOS:  cpu time    0.0036: real time    0.0038
    CHARGE:  cpu time    0.7210: real time    0.7216
    MIXING:  cpu time    0.0030: real time    0.0030
    --------------------------------------------
      LOOP:  cpu time   15.6920: real time   15.7115

 eigenvalue-minimisations  : 13788
 total energy-change (2. order) : 0.3303752E-04  (-0.1410432E-04)
 number of electron     127.9999567 magnetization       9.4807957
 augmentation part       67.7306780 magnetization       6.8095395

 Broyden mixing:
  rms(total) = 0.36694E-02    rms(broyden)= 0.36693E-02
  rms(prec ) = 0.50032E-02
  weight for this iteration     100.00

 eigenvalues of (default mixing * dielectric matrix)
  average eigenvalue GAMMA=   0.9555
  2.5067  2.5067  1.1312  1.1312  0.8112  0.8112  0.6443  0.6443  0.5662  0.1904
  0.2344  0.2888

 Free energy of the ion-electron system (eV)
  ---------------------------------------------------
  alpha Z        PSCENC =       533.37175684
  Ewald energy   TEWEN  =     -9339.29496324
  -Hartree energ DENC   =     -2889.75937230
  -exchange      EXHF   =         0.00000000
  -V(xc)+E(xc)   XCENC  =        75.62346833
  PAW double counting   =     12943.86268906   -13288.16985219
  entropy T*S    EENTRO =        -0.00166261
  eigenvalues    EBANDS =       631.77362143
  atomic energy  EATOM  =     11229.46195210
  Solvation  Ediel_sol  =         0.00000000
  ---------------------------------------------------
  free energy    TOTEN  =      -103.13236258 eV

  energy without entropy =     -103.13069997  energy(sigma->0) =     -103.13153127


--------------------------------------------------------------------------------------------------------




--------------------------------------- Iteration      1(  18)  ---------------------------------------


    POTLOK:  cpu time    0.1049: real time    0.1061
    SETDIJ:  cpu time    0.0383: real time    0.0384
    EDDIAG:  cpu time    3.4007: real time    3.4057
  RMM-DIIS:  cpu time    7.6536: real time    7.6652
    ORTHCH:  cpu time    0.6226: real time    0.6234
       DOS:  cpu time    0.0036: real time    0.0037
    --------------------------------------------
      LOOP:  cpu time   11.8236: real time   11.8424

[...]
     79      11.1874      0.00000
     80      11.4934      0.00000
     81      11.5705      0.00000
     82      11.8656      0.00000
     83      12.2140      0.00000
     84      12.2537      0.00000


--------------------------------------------------------------------------------------------------------


 soft charge-density along one line, spin component           1
         0         1         2         3         4         5         6         7         8         9
 total charge-density along one line

 soft charge-density along one line, spin component           2
         0         1         2         3         4         5         6         7         8         9
 total charge-density along one line

 pseudopotential strength for first ion, spin component:           1
 -1.681  -0.000  -0.054  -0.000   0.000  -2.314  -0.000  -0.051
 -0.000  -1.660  -0.000  -0.011   0.000  -0.000  -2.294  -0.000
 -0.054  -0.000  -1.670  -0.000   0.000  -0.051  -0.000  -2.304
 -0.000  -0.011  -0.000  -1.660  -0.000  -0.000  -0.011  -0.000
  0.000   0.000   0.000  -0.000  -1.697   0.000   0.000   0.000
 -2.314  -0.000  -0.051  -0.000   0.000  -2.878  -0.000  -0.049
 -0.000  -2.294  -0.000  -0.011   0.000  -0.000  -2.859  -0.000
 -0.051  -0.000  -2.304  -0.000   0.000  -0.049  -0.000  -2.868
 -0.000  -0.011  -0.000  -2.294  -0.000  -0.000  -0.011  -0.000
  0.000   0.000   0.000  -0.000  -2.330   0.000   0.000   0.000
 -0.011   0.000  -0.003   0.000   0.000  -0.011   0.000  -0.003
 -0.021   0.000  -0.006   0.000   0.000  -0.020   0.000  -0.005
  0.000  -0.009   0.000  -0.000   0.000   0.000  -0.009   0.000
 -0.000  -0.000  -0.010   0.000   0.000  -0.000  -0.000  -0.010
 -0.000  -0.000  -0.000  -0.009   0.000  -0.000  -0.000  -0.000
  0.000  -0.010   0.000  -0.000   0.000   0.000  -0.009   0.000
 -0.000  -0.000  -0.010   0.000   0.000  -0.000  -0.000  -0.010
 -0.000  -0.000  -0.000  -0.010   0.000  -0.000  -0.000  -0.000
 pseudopotential strength for first ion, spin component:           2
 -1.522  -0.000   0.053  -0.000   0.000  -2.163  -0.000   0.050
 -0.000  -1.491  -0.000   0.002   0.000  -0.000  -2.134  -0.000
  0.053  -0.000  -1.436  -0.000   0.000   0.050  -0.000  -2.081
 -0.000   0.002  -0.000  -1.491  -0.000  -0.000   0.002  -0.000
  0.000   0.000   0.000  -0.000  -1.468   0.000   0.000   0.000
 -2.163  -0.000   0.050  -0.000   0.000  -2.735  -0.000   0.048
 -0.000  -2.134  -0.000   0.002   0.000  -0.000  -2.707  -0.000
  0.050  -0.000  -2.081  -0.000   0.000   0.048  -0.000  -2.656
 -0.000   0.002  -0.000  -2.134  -0.000  -0.000   0.002  -0.000
  0.000   0.000   0.000  -0.000  -2.112   0.000   0.000   0.000
  0.009   0.000  -0.004   0.000   0.000   0.009   0.000  -0.004
  0.015   0.000  -0.007   0.000   0.000   0.015   0.000  -0.007
  0.000  -0.006   0.000   0.001   0.000   0.000  -0.006   0.000
  0.001  -0.000  -0.010   0.000   0.000   0.001  -0.000  -0.010
 -0.000   0.001  -0.000  -0.006   0.000  -0.000   0.001  -0.000
  0.000  -0.005   0.000   0.002   0.000   0.000  -0.005   0.000
  0.002  -0.000  -0.010   0.000   0.000   0.002  -0.000  -0.010
 -0.000   0.002  -0.000  -0.005   0.000  -0.000   0.002  -0.000
 total augmentation occupancy for first ion, spin component:           1
  1.923   0.000   0.054  -0.000  -0.000  -0.485  -0.000  -0.054  -0.000   0.000  -0.074   0.033  -0.000   0.038   0.000   0.000
 -0.000   2.045   0.000   0.033   0.000  -0.000  -0.563   0.000  -0.047   0.000   0.000   0.000   0.037  -0.000   0.044  -0.013
  0.054   0.000   2.784   0.000   0.000  -0.053   0.000  -1.062   0.000   0.000   0.001   0.004  -0.000  -0.033  -0.000   0.000
  0.000   0.033   0.000   2.045  -0.000  -0.000  -0.047   0.000  -0.563   0.000   0.000  -0.000   0.044  -0.000   0.037  -0.008
 -0.000  -0.000   0.000   0.000   2.771  -0.000   0.000  -0.000  -0.000  -1.052   0.000   0.000   0.000   0.000   0.000   0.000
 -0.485  -0.000  -0.053   0.000  -0.000   0.815   0.000   0.037   0.000  -0.000   0.044  -0.022   0.000  -0.022   0.000   0.000
 -0.000  -0.563  -0.000  -0.047   0.000   0.000   0.869   0.000   0.054   0.000   0.000   0.000  -0.010   0.000  -0.026   0.002
 -0.054  -0.000  -1.062   0.000  -0.000   0.037   0.000   1.115   0.000   0.000   0.004  -0.004   0.000   0.036   0.000  -0.000
 -0.000  -0.047  -0.000  -0.563  -0.000  -0.000   0.054   0.000   0.869  -0.000  -0.000   0.000  -0.026   0.000  -0.010   0.006
  0.000  -0.000   0.000   0.000  -1.052   0.000  -0.000   0.000  -0.000   1.096   0.000  -0.000   0.000  -0.000  -0.000   0.000
 -0.074   0.000   0.001   0.000  -0.000   0.044   0.000   0.004  -0.000  -0.000   2.128  -0.286  -0.000   0.040  -0.000  -0.000
  0.033  -0.000   0.004  -0.000  -0.000  -0.022   0.000  -0.004  -0.000   0.000  -0.286   0.049  -0.000   0.004  -0.000   0.000
 -0.000   0.037   0.000   0.044   0.000  -0.000  -0.010  -0.000  -0.026  -0.000   0.000   0.000   0.256   0.000   0.002  -0.027
  0.038   0.000  -0.033   0.000  -0.000  -0.022  -0.000   0.036  -0.000   0.000   0.040   0.004  -0.000   0.259   0.000  -0.000
 -0.000   0.044   0.000   0.037   0.000  -0.000  -0.026  -0.000  -0.010   0.000  -0.000   0.000   0.002   0.000   0.256  -0.002
  0.000  -0.013  -0.000  -0.008  -0.000   0.000   0.002  -0.000   0.006   0.000  -0.000   0.000  -0.027   0.000  -0.002   0.003
 -0.008   0.000  -0.008   0.000  -0.000   0.006   0.000  -0.005  -0.000  -0.000  -0.005  -0.001   0.000  -0.027   0.000   0.000
 -0.000  -0.008   0.000  -0.013   0.000  -0.000   0.006  -0.000   0.002  -0.000  -0.000   0.000  -0.002   0.000  -0.027   0.001
 total augmentation occupancy for first ion, spin component:           2
  0.230   0.000   0.492  -0.000  -0.000  -0.132   0.000  -0.265   0.000   0.000   0.154  -0.005  -0.000   0.041   0.000  -0.000
  0.000   0.302  -0.000  -0.278  -0.000  -0.000  -0.178   0.000   0.258  -0.000   0.000   0.000   0.034   0.000   0.044  -0.002
  0.492   0.000   0.437   0.000   0.000  -0.272   0.000  -0.213   0.000  -0.000   0.009   0.005   0.000  -0.023   0.000   0.000
  0.000  -0.278  -0.000   0.302  -0.000  -0.000   0.258   0.000  -0.178  -0.000   0.000   0.000   0.044   0.000   0.034  -0.001
 -0.000   0.000   0.000  -0.000   0.396   0.000   0.000  -0.000   0.000  -0.186   0.000   0.000   0.000   0.000   0.000  -0.000
 -0.132   0.000  -0.272   0.000  -0.000   0.056   0.000   0.119   0.000   0.000  -0.100   0.019   0.000  -0.034  -0.000   0.000
  0.000  -0.178   0.000   0.258   0.000   0.000   0.083   0.000  -0.223   0.000   0.000  -0.000  -0.020   0.000  -0.035   0.003
 -0.265  -0.000  -0.213   0.000  -0.000   0.119  -0.000   0.067  -0.000   0.000  -0.006  -0.003   0.000   0.020   0.000  -0.000
 -0.000   0.258  -0.000  -0.178   0.000   0.000  -0.223   0.000   0.083  -0.000  -0.000   0.000  -0.035   0.000  -0.020   0.002
 -0.000  -0.000  -0.000  -0.000  -0.186   0.000  -0.000   0.000   0.000   0.051  -0.000  -0.000  -0.000   0.000   0.000  -0.000
  0.154   0.000   0.009   0.000   0.000  -0.100   0.000  -0.006  -0.000  -0.000  -0.035   0.010   0.000   0.006  -0.000   0.000
 -0.005  -0.000   0.005  -0.000   0.000   0.019  -0.000  -0.003  -0.000  -0.000   0.010  -0.001  -0.000   0.003  -0.000  -0.000
  0.000   0.034   0.000   0.044  -0.000  -0.000  -0.020   0.000  -0.035   0.000   0.000  -0.000   0.000   0.000  -0.021  -0.000
  0.041  -0.000  -0.023   0.000   0.000  -0.034   0.000   0.020   0.000   0.000   0.006   0.003  -0.000   0.001  -0.000   0.000
  0.000   0.044   0.000   0.034  -0.000  -0.000  -0.035  -0.000  -0.020  -0.000  -0.000  -0.000  -0.021  -0.000   0.000   0.003
  0.000  -0.002   0.000  -0.001  -0.000   0.000   0.003  -0.000   0.002  -0.000  -0.000   0.000  -0.000  -0.000   0.003  -0.000
 -0.004   0.000  -0.002   0.000   0.000   0.004   0.000   0.001  -0.000   0.000   0.001  -0.000  -0.000   0.000  -0.000  -0.000
  0.000  -0.001  -0.000  -0.002   0.000   0.000   0.002  -0.000   0.003  -0.000  -0.000   0.000   0.003  -0.000  -0.000  -0.000


------------------------ aborting loop because EDIFF is reached ----------------------------------------





 total charge     

# of ion       s       p       d       tot
------------------------------------------
    1        0.471   0.425   8.387   9.283
    2        0.471   0.422   8.382   9.275
    3        0.471   0.422   8.382   9.275
    4        0.471   0.425   8.387   9.283
    5        0.471   0.425   8.387   9.283
    6        0.471   0.422   8.382   9.275
    7        0.471   0.422   8.382   9.275
    8        0.471   0.425   8.387   9.283
    9        0.318   0.302   4.939   5.559
   10        0.318   0.302   4.939   5.559
   11        0.338   0.343   4.937   5.618
   12        0.344   0.341   4.909   5.595
   13        0.338   0.343   4.937   5.618
   14        0.344   0.341   4.909   5.595
   15        1.261   1.770   0.320   3.351
   16        1.261   1.770   0.320   3.351
--------------------------------------------------
tot          8.291   8.899  97.285 114.475



 magnetization (x)

# of ion       s       p       d       tot
------------------------------------------
    1       -0.001   0.005   0.231   0.235
    2       -0.003  -0.004   0.207   0.200
    3       -0.003  -0.004   0.207   0.200
    4       -0.001   0.005   0.231   0.235
    5       -0.001   0.005   0.231   0.235
    6       -0.003  -0.004   0.207   0.200
    7       -0.003  -0.004   0.207   0.200
    8       -0.001   0.005   0.231   0.235
    9        0.027   0.036   3.561   3.625
   10        0.027   0.036   3.561   3.625
   11       -0.032  -0.046  -3.372  -3.449
   12        0.029   0.049   3.478   3.557
   13       -0.032  -0.046  -3.372  -3.449
   14        0.029   0.049   3.478   3.557
   15        0.012  -0.074  -0.004  -0.066
   16        0.012  -0.074  -0.004  -0.066
--------------------------------------------------
tot          0.056  -0.063   9.081   9.074

    CHARGE:  cpu time    0.7302: real time    0.7311
    FORLOC:  cpu time    0.0072: real time    0.0072
    FORNL :  cpu time    5.0439: real time    5.0515
    STRESS:  cpu time   15.0588: real time   15.0804
    FORCOR:  cpu time    0.0996: real time    0.0997
    FORHAR:  cpu time    0.0161: real time    0.0161
    MIXING:  cpu time    0.0031: real time    0.0031
    OFIELD:  cpu time    0.0000: real time    0.0000

  FORCE on cell =-STRESS in cart. coord.  units (eV):
  Direction    XX          YY          ZZ          XY          YZ          ZX
  --------------------------------------------------------------------------------------
  Alpha Z   533.37176   533.37176   533.37176
  Ewald   -3029.65194 -3029.65194 -3280.01948     0.00000     0.00000    -0.00000
  Hartree  1040.45398  1040.45398   808.99002    -0.00000    -0.00000    -0.00000
  E(xc)    -670.70226  -670.70226  -671.53563    -0.00000     0.00000     0.00000
  Local    -366.86807  -366.86807   106.07173     0.00000    -0.00000     0.00000
  n-local  -147.67341  -144.78267  -145.74957    -0.40724    -1.08786     0.25364
  augment  1577.24815  1577.24815  1584.19175     0.00000    -0.00000    -0.00000
  Kinetic  1052.53057  1066.61306  1069.28744     1.49256     0.66336     1.23052
  Fock        0.00000     0.00000     0.00000     0.00000     0.00000     0.00000
  -------------------------------------------------------------------------------------
  Total      -2.80460    -2.80460     4.60802     0.00000     0.00000     0.00000
  in kB     -21.29927   -21.29927    34.99514     0.00000     0.00000     0.00000
  external pressure =       -2.53 kB  Pullay stress =        0.00 kB


 VOLUME and BASIS-vectors are now :
 -----------------------------------------------------------------------------
  energy-cutoff  :      550.00
  volume of cell :      210.97
      direct lattice vectors                 reciprocal lattice vectors
     5.953044294  0.000000000  0.000000000     0.167981280  0.000000000  0.000000000
     0.000000000  5.953044294  0.000000000     0.000000000  0.167981280  0.000000000
     0.000000000  0.000000000  5.953044294     0.000000000  0.000000000  0.167981280

  length of vectors
     5.953044294  5.953044294  5.953044294     0.167981280  0.167981280  0.167981280


 FORCES acting on ions
    electron-ion (+dipol)            ewald-force                    non-local-force                 convergence-correction
 -----------------------------------------------------------------------------------------------
   0.677E-12 0.632E-12 0.147E+03   -.107E-13 -.142E-13 -.145E+03   0.520E-17 0.173E-17 -.267E+01   0.269E-13 0.879E-14 -.665E-02
   0.149E-11 -.267E-11 0.147E+03   -.107E-13 -.107E-13 -.145E+03   0.260E-17 0.173E-17 -.267E+01   0.434E-13 -.622E-13 -.665E-02
   0.248E-12 0.340E-11 0.147E+03   -.107E-13 -.249E-13 -.145E+03   0.954E-17 0.694E-17 -.267E+01   0.219E-13 0.233E-13 -.665E-02
   0.202E-11 0.613E-11 0.147E+03   -.107E-13 -.284E-13 -.145E+03   0.520E-17 0.694E-17 -.267E+01   0.410E-13 0.846E-13 -.665E-02
   0.679E-12 0.591E-12 -.147E+03   -.497E-13 -.391E-13 0.145E+03   -.173E-17 0.520E-17 0.267E+01   -.714E-14 0.197E-13 0.665E-02
   0.167E-11 0.378E-11 -.147E+03   -.746E-13 -.142E-13 0.145E+03   0.000E+00 -.867E-18 0.267E+01   0.230E-13 0.172E-13 0.665E-02
   0.502E-12 0.383E-11 -.147E+03   -.604E-13 -.284E-13 0.145E+03   0.000E+00 0.260E-17 0.267E+01   -.384E-13 0.383E-13 0.665E-02
   0.189E-11 0.485E-11 -.147E+03   -.355E-13 -.249E-13 0.145E+03   -.347E-17 -.173E-17 0.267E+01   0.523E-13 0.316E-13 0.665E-02
   0.217E-12 0.373E-13 -.698E-12   0.216E-13 0.367E-13 0.125E-13   0.000E+00 0.000E+00 0.000E+00   -.277E-13 0.244E-13 0.681E-13
   -.407E-13 0.184E-12 -.633E-13   0.202E-13 0.342E-13 -.173E-14   0.000E+00 0.000E+00 0.000E+00   0.490E-13 -.354E-13 0.469E-13
   -.415E-13 -.207E-13 0.211E-12   0.593E-13 0.415E-13 -.407E-13   0.000E+00 0.000E+00 -.397E-22   0.483E-13 0.249E-13 -.504E-13
   0.214E-12 -.217E-14 0.145E-11   0.555E-13 0.444E-13 -.118E-13   0.000E+00 0.000E+00 0.132E-22   -.290E-13 0.280E-13 -.742E-13
   0.207E-12 0.169E-12 0.783E-12   0.637E-13 0.254E-13 -.124E-13   0.000E+00 0.000E+00 -.265E-22   -.326E-13 -.319E-13 -.678E-13
   -.401E-13 0.174E-12 0.205E-12   0.541E-13 0.283E-13 -.404E-13   0.000E+00 0.000E+00 0.199E-22   0.575E-13 -.236E-13 -.370E-13
   -.191E-13 -.105E-13 -.140E-13   -.129E-13 -.129E-13 -.950E-14   0.132E-22 0.000E+00 0.000E+00   0.111E-13 0.865E-14 0.206E-13
   -.963E-14 -.498E-12 -.250E-13   -.117E-13 -.818E-14 -.950E-14   0.000E+00 0.000E+00 0.000E+00   -.129E-13 -.949E-14 0.202E-13
 -----------------------------------------------------------------------------------------------
   0.966E-11 0.206E-10 0.101E-10   -.129E-13 0.476E-14 -.566E-13   0.173E-16 0.226E-16 0.888E-15   0.227E-12 0.147E-12 -.472E-12


 POSITION                                       TOTAL-FORCE (eV/Angst)
 -----------------------------------------------------------------------------------
      1.48826      1.48826      1.56442        -0.000000      0.000000      0.001325
      4.46478      1.48826      1.56442         0.000000      0.000000      0.001325
      1.48826      4.46478      1.56442         0.000000      0.000000      0.001325
      4.46478      4.46478      1.56442        -0.000000     -0.000000      0.001325
      1.48826      1.48826      4.38863         0.000000     -0.000000     -0.001325
      4.46478      1.48826      4.38863         0.000000     -0.000000     -0.001325
      1.48826      4.46478      4.38863         0.000000     -0.000000     -0.001325
      4.46478      4.46478      4.38863         0.000000     -0.000000     -0.001325
      2.97652      0.00000      0.00000        -0.000000      0.000000     -0.000000
      0.00000      2.97652      0.00000        -0.000000      0.000000     -0.000000
      0.00000      0.00000      2.97652        -0.000000      0.000000     -0.000000
      2.97652      0.00000      2.97652        -0.000000      0.000000     -0.000000
      2.97652      2.97652      2.97652        -0.000000      0.000000      0.000000
      0.00000      2.97652      2.97652        -0.000000      0.000000     -0.000000
      0.00000      0.00000      0.00000        -0.000000      0.000000     -0.000000
      2.97652      2.97652      0.00000        -0.000000      0.000000     -0.000000
 -----------------------------------------------------------------------------------
    total drift:                                0.000000      0.000000      0.000000


--------------------------------------------------------------------------------------------------------



  FREE ENERGIE OF THE ION-ELECTRON SYSTEM (eV)
  ---------------------------------------------------
  free  energy   TOTEN  =      -103.13236063 eV

  energy  without entropy=     -103.13069733  energy(sigma->0) =     -103.13152898



--------------------------------------------------------------------------------------------------------


    POTLOK:  cpu time    0.1337: real time    0.1339


--------------------------------------------------------------------------------------------------------




--------------------------------------------------------------------------------------------------------


  
 reached required accuracy - stopping structural energy minimisation
     LOOP+:  cpu time  360.4005: real time  360.9659
    4ORBIT:  cpu time    0.0000: real time    0.0000



 total charge     

# of ion       s       p       d       tot
------------------------------------------
    1        0.471   0.425   8.387   9.283
    2        0.471   0.422   8.382   9.275
    3        0.471   0.422   8.382   9.275
    4        0.471   0.425   8.387   9.283
    5        0.471   0.425   8.387   9.283
    6        0.471   0.422   8.382   9.275
    7        0.471   0.422   8.382   9.275
    8        0.471   0.425   8.387   9.283
    9        0.318   0.302   4.939   5.559
   10        0.318   0.302   4.939   5.559
   11        0.338   0.343   4.937   5.618
   12        0.344   0.341   4.909   5.595
   13        0.338   0.343   4.937   5.618
   14        0.344   0.341   4.909   5.595
   15        1.261   1.770   0.320   3.351
   16        1.261   1.770   0.320   3.351
--------------------------------------------------
tot          8.291   8.899  97.285 114.475



 magnetization (x)

# of ion       s       p       d       tot
------------------------------------------
    1       -0.001   0.005   0.231   0.235
    2       -0.003  -0.004   0.207   0.200
    3       -0.003  -0.004   0.207   0.200
    4       -0.001   0.005   0.231   0.235
    5       -0.001   0.005   0.231   0.235
    6       -0.003  -0.004   0.207   0.200
    7       -0.003  -0.004   0.207   0.200
    8       -0.001   0.005   0.231   0.235
    9        0.027   0.036   3.561   3.625
   10        0.027   0.036   3.561   3.625
   11       -0.032  -0.046  -3.372  -3.449
   12        0.029   0.049   3.478   3.557
   13       -0.032  -0.046  -3.372  -3.449
   14        0.029   0.049   3.478   3.557
   15        0.012  -0.074  -0.004  -0.066
   16        0.012  -0.074  -0.004  -0.066
--------------------------------------------------
tot          0.056  -0.063   9.081   9.074


 total amount of memory used by VASP MPI-rank0   103323. kBytes
=======================================================================

   base      :      30000. kBytes
   nonlr-proj:       6816. kBytes
   fftplans  :       1269. kBytes
   grid      :       6573. kBytes
   one-center:        497. kBytes
   wavefun   :      58168. kBytes

  
  
 General timing and accounting informations for this job:
 ========================================================
  
                  Total CPU time used (sec):      371.014
                            User time (sec):      351.746
                          System time (sec):       19.268
                         Elapsed time (sec):      372.682
  
                   Maximum memory used (kb):      133136.
                   Average memory used (kb):           0.
  
                          Minor page faults:      7078083
                          Major page faults:           14
                 Voluntary context switches:         1917
