 vasp.5.4.4.18Apr17-6-g9f103f2a35 (build May 21 2018 20:56:50) complex           
 executed on             LinuxGNU date 2021.10.15  15:41:50
 running on   12 total cores
 distrk:  each k-point on   12 cores,    1 groups
 distr:  one band on NCORES_PER_BAND=   1 cores,   12 groups


--------------------------------------------------------------------------------------------------------


 INCAR:
 POTCAR:    PAW_PBE Ni 02Aug2007                  
 POTCAR:    PAW_PBE Mn 06Sep2000                  
 POTCAR:    PAW_PBE In 08Apr2002                  

 ----------------------------------------------------------------------------- 
|                                                                             |
|           W    W    AA    RRRRR   N    N  II  N    N   GGGG   !!!           |
|           W    W   A  A   R    R  NN   N  II  NN   N  G    G  !!!           |
|           W    W  A    A  R    R  N N  N  II  N N  N  G       !!!           |
|           W WW W  AAAAAA  RRRRR   N  N N  II  N  N N  G  GGG   !            |
|           WW  WW  A    A  R   R   N   NN  II  N   NN  G    G                |
|           W    W  A    A  R    R  N    N  II  N    N   GGGG   !!!           |
|                                                                             |
|      For optimal performance we recommend to set                            |
|        NCORE= 4 - approx SQRT( number of cores)                             |
|      NCORE specifies how many cores store one orbital (NPAR=cpu/NCORE).     |
|      This setting can  greatly improve the performance of VASP for DFT.     |
|      The default,   NCORE=1            might be grossly inefficient         |
|      on modern multi-core architectures or massively parallel machines.     |
|      Do your own testing !!!!                                               |
|      Unfortunately you need to use the default for GW and RPA calculations. |
|      (for HF NCORE is supported but not extensively tested yet)             |
|                                                                             |
 ----------------------------------------------------------------------------- 

 POTCAR:    PAW_PBE Ni 02Aug2007                  
   VRHFIN =Ni:                                                                  
   LEXCH  = PE                                                                  
   EATOM  =  1077.6739 eV,   79.2068 Ry                                         
                                                                                
   TITEL  = PAW_PBE Ni 02Aug2007                                                
   LULTRA =        F    use ultrasoft PP ?                                      
   IUNSCR =        1    unscreen: 0-lin 1-nonlin 2-no                           
   RPACOR =    2.000    partial core radius                                     
   POMASS =   58.690; ZVAL   =   10.000    mass and valenz                      
   RCORE  =    2.300    outmost cutoff radius                                   
   RWIGS  =    2.430; RWIGS  =    1.286    wigner-seitz radius (au A)           
   ENMAX  =  269.532; ENMIN  =  202.149 eV                                      
   RCLOC  =    1.201    cutoff for local pot                                    
   LCOR   =        T    correct aug charges                                     
   LPAW   =        T    paw PP                                                  
   EAUG   =  544.565                                                            
   DEXC   =    0.000                                                            
   RMAX   =    2.357    core radius for proj-oper                               
   RAUG   =    1.300    factor for augmentation sphere                          
   RDEP   =    2.390    radius for radial grids                                 
   RDEPT  =    1.838    core radius for aug-charge                              
                                                                                
   Atomic configuration                                                         
    9 entries                                                                   
     n  l   j            E        occ.                                          
     1  0  0.50     -8206.4253   2.0000                                         
     2  0  0.50      -976.1748   2.0000                                         
     2  1  1.50      -839.0571   6.0000                                         
     3  0  0.50      -105.9991   2.0000                                         
     3  1  1.50       -66.4603   6.0000                                         
     3  2  2.50        -4.6458   9.0000                                         
     4  0  0.50        -4.4926   1.0000                                         
     4  1  1.50        -4.0817   0.0000                                         
     4  3  2.50        -1.3606   0.0000                                         
   Description                                                                  
     l       E           TYP  RCUT    TYP  RCUT                                 
     2     -4.6457903     23  2.300                                             
     2     -6.0063729     23  2.300                                             
     0     -4.4925590     23  2.300                                             
     0      5.0102601     23  2.300                                             
     1     -2.7211652     23  2.300                                             
     1     16.5183231     23  2.300                                             
  local pseudopotential read in
  partial core-charges read in
  partial kinetic energy density read in
  atomic valenz-charges read in
  non local Contribution for L=           2  read in
    real space projection operators read in
  non local Contribution for L=           2  read in
    real space projection operators read in
  non local Contribution for L=           0  read in
    real space projection operators read in
  non local Contribution for L=           0  read in
    real space projection operators read in
  non local Contribution for L=           1  read in
    real space projection operators read in
  non local Contribution for L=           1  read in
    real space projection operators read in
    PAW grid and wavefunctions read in

   number of l-projection  operators is LMAX  =           6
   number of lm-projection operators is LMMAX =          18

 POTCAR:    PAW_PBE Mn 06Sep2000                  
   VRHFIN =Mn: d6 s1                                                            
   LEXCH  = PE                                                                  
   EATOM  =   416.7541 eV,   30.6306 Ry                                         
                                                                                
   TITEL  = PAW_PBE Mn 06Sep2000                                                
   LULTRA =        F    use ultrasoft PP ?                                      
   IUNSCR =        1    unscreen: 0-lin 1-nonlin 2-no                           
   RPACOR =    2.000    partial core radius                                     
   POMASS =   54.938; ZVAL   =    7.000    mass and valenz                      
   RCORE  =    2.300    outmost cutoff radius                                   
   RWIGS  =    2.500; RWIGS  =    1.323    wigner-seitz radius (au A)           
   ENMAX  =  269.864; ENMIN  =  202.398 eV                                      
   RCLOC  =    1.725    cutoff for local pot                                    
   LCOR   =        T    correct aug charges                                     
   LPAW   =        T    paw PP                                                  
   EAUG   =  500.711                                                            
   DEXC   =    0.000                                                            
   RMAX   =    2.343    core radius for proj-oper                               
   RAUG   =    1.300    factor for augmentation sphere                          
   RDEP   =    2.338    radius for radial grids                                 
   RDEPT  =    1.911    core radius for aug-charge                              
                                                                                
   Atomic configuration                                                         
    9 entries                                                                   
     n  l   j            E        occ.                                          
     1  0  0.50     -6424.8288   2.0000                                         
     2  0  0.50      -739.1154   2.0000                                         
     2  1  1.50      -625.3949   6.0000                                         
     3  0  0.50       -81.6100   2.0000                                         
     3  1  1.50       -50.4667   6.0000                                         
     3  2  2.50        -3.3745   6.0000                                         
     4  0  0.50        -4.1331   1.0000                                         
     4  1  0.50        -4.0817   0.0000                                         
     4  3  2.50        -1.3606   0.0000                                         
   Description                                                                  
     l       E           TYP  RCUT    TYP  RCUT                                 
     2     -3.3744664     23  2.300                                             
     2     -4.7350490     23  2.300                                             
     0     -4.1331408     23  2.300                                             
     0      7.6656614     23  2.300                                             
     1     -2.7211652     23  2.300                                             
     1     20.4087390     23  2.300                                             
  local pseudopotential read in
  partial core-charges read in
  partial kinetic energy density read in
  atomic valenz-charges read in
  non local Contribution for L=           2  read in
    real space projection operators read in
  non local Contribution for L=           2  read in
    real space projection operators read in
  non local Contribution for L=           0  read in
    real space projection operators read in
  non local Contribution for L=           0  read in
    real space projection operators read in
  non local Contribution for L=           1  read in
    real space projection operators read in
  non local Contribution for L=           1  read in
    real space projection operators read in
    PAW grid and wavefunctions read in

   number of l-projection  operators is LMAX  =           6
   number of lm-projection operators is LMMAX =          18

 POTCAR:    PAW_PBE In 08Apr2002                  
   VRHFIN =In: s2p1                                                             
   LEXCH  = PE                                                                  
   EATOM  =    53.7908 eV,    3.9535 Ry                                         
                                                                                
   TITEL  = PAW_PBE In 08Apr2002                                                
   LULTRA =        F    use ultrasoft PP ?                                      
   IUNSCR =        1    unscreen: 0-lin 1-nonlin 2-no                           
   RPACOR =    2.400    partial core radius                                     
   POMASS =  114.820; ZVAL   =    3.000    mass and valenz                      
   RCORE  =    3.100    outmost cutoff radius                                   
   RWIGS  =    3.170; RWIGS  =    1.677    wigner-seitz radius (au A)           
   ENMAX  =   95.934; ENMIN  =   71.951 eV                                      
   ICORE  =        3    local potential                                         
   LCOR   =        T    correct aug charges                                     
   LPAW   =        T    paw PP                                                  
   EAUG   =  237.125                                                            
   DEXC   =    0.000                                                            
   RMAX   =    3.168    core radius for proj-oper                               
   RAUG   =    1.300    factor for augmentation sphere                          
   RDEP   =    3.187    radius for radial grids                                 
   RDEPT  =    2.711    core radius for aug-charge                              
                                                                                
   Atomic configuration                                                         
   13 entries                                                                   
     n  l   j            E        occ.                                          
     1  0  0.50    -27747.9169   2.0000                                         
     2  0  0.50     -4154.4438   2.0000                                         
     2  1  1.50     -3728.4305   6.0000                                         
     3  0  0.50      -788.3680   2.0000                                         
     3  1  1.50      -648.9215   6.0000                                         
     3  2  2.50      -432.5893  10.0000                                         
     4  0  0.50      -119.6363   2.0000                                         
     4  1  1.50       -78.1086   6.0000                                         
     4  2  2.50       -18.6227  10.0000                                         
     5  0  0.50        -8.2107   2.0000                                         
     5  1  0.50        -2.5185   1.0000                                         
     5  2  2.50        -1.3606   0.0000                                         
     4  3  2.50        -2.7212   0.0000                                         
   Description                                                                  
     l       E           TYP  RCUT    TYP  RCUT                                 
     0     -8.2107306     23  3.100                                             
     0     -6.1485975     23  3.100                                             
     1     -2.5184867     23  3.100                                             
     1      3.2427302     23  3.100                                             
     2     -1.3605826     23  3.100                                             
     3     -1.3605826     23  3.100                                             
  local pseudopotential read in
  partial core-charges read in
  partial kinetic energy density read in
  atomic valenz-charges read in
  non local Contribution for L=           0  read in
    real space projection operators read in
  non local Contribution for L=           0  read in
    real space projection operators read in
  non local Contribution for L=           1  read in
    real space projection operators read in
  non local Contribution for L=           1  read in
    real space projection operators read in
  non local Contribution for L=           2  read in
    real space projection operators read in
    PAW grid and wavefunctions read in

   number of l-projection  operators is LMAX  =           5
   number of lm-projection operators is LMMAX =          13

 Optimization of the real space projectors (new method)

 maximal supplied QI-value         = 16.25
 optimisation between [QCUT,QGAM] = [ 11.86, 23.89] = [ 39.41,159.82] Ry 
 Optimized for a Real-space Cutoff    1.33 Angstroem

   l    n(q)    QCUT    max X(q) W(low)/X(q) W(high)/X(q)  e(spline) 
   2      9    11.864    60.317    0.21E-03    0.51E-03    0.25E-06
   2      9    11.864    55.921    0.21E-03    0.51E-03    0.26E-06
   0      9    11.864    51.690    0.22E-03    0.30E-04    0.17E-06
   0      9    11.864    30.015    0.20E-03    0.28E-04    0.15E-06
   1      9    11.864    18.849    0.76E-04    0.33E-03    0.17E-06
   1      9    11.864    14.624    0.60E-04    0.28E-03    0.15E-06
 Optimization of the real space projectors (new method)

 maximal supplied QI-value         = 16.25
 optimisation between [QCUT,QGAM] = [ 11.86, 23.89] = [ 39.41,159.82] Ry 
 Optimized for a Real-space Cutoff    1.36 Angstroem

   l    n(q)    QCUT    max X(q) W(low)/X(q) W(high)/X(q)  e(spline) 
   2      9    11.864   110.144    0.49E-03    0.50E-03    0.21E-06
   2      9    11.864   103.200    0.49E-03    0.51E-03    0.22E-06
   0     10    11.864    68.437    0.12E-03    0.41E-04    0.21E-06
   0     10    11.864    33.971    0.11E-03    0.36E-04    0.19E-06
   1      9    11.864    17.065    0.24E-03    0.26E-03    0.93E-07
   1      9    11.864    12.540    0.19E-03    0.20E-03    0.80E-07
 Optimization of the real space projectors (new method)

 maximal supplied QI-value         = 12.09
 optimisation between [QCUT,QGAM] = [ 11.97, 23.95] = [ 40.14,160.58] Ry 
 Optimized for a Real-space Cutoff    1.63 Angstroem

   l    n(q)    QCUT    max X(q) W(low)/X(q) W(high)/X(q)  e(spline) 
   0     12    11.973   106.980    0.33E-03    0.16E-03    0.25E-05
   0     12    11.973    81.086    0.37E-03    0.18E-03    0.28E-05
   1     11    11.973    53.097    0.22E-03    0.42E-03    0.40E-05
   1     11    11.973    32.621    0.20E-03    0.40E-03    0.37E-05
   2     11    11.973     8.820    0.30E-03    0.17E-03    0.41E-06
  PAW_PBE Ni 02Aug2007                  :
 energy of atom  1       EATOM=-1077.6739
 kinetic energy error for atom=    0.0027 (will be added to EATOM!!)
  PAW_PBE Mn 06Sep2000                  :
 energy of atom  2       EATOM= -416.7541
 kinetic energy error for atom=    0.0022 (will be added to EATOM!!)
  PAW_PBE In 08Apr2002                  :
 energy of atom  3       EATOM=  -53.7908
 kinetic energy error for atom=    0.0000 (will be added to EATOM!!)


 POSCAR: Ni2MnIn                                 
  positions in direct lattice
  velocities in cartesian coordinates
 exchange correlation table for  LEXCH =        8
   RHO(1)=    0.500       N(1)  =     2000
   RHO(2)=  100.500       N(2)  =     4000



--------------------------------------------------------------------------------------------------------


 ion  position               nearest neighbor table
   1  0.253  0.267  0.267-  13 2.46  14 2.48   9 2.58  12 2.58  11 2.60  10 2.60  16 2.69  15 2.71
                             3 2.78   5 2.78   2 2.95   2 3.01
   2  0.747  0.267  0.267-  13 2.46  14 2.48   9 2.58  12 2.58  11 2.60  10 2.60  16 2.69  15 2.71
                             4 2.78   6 2.78   1 2.95   1 3.01
   3  0.253  0.733  0.267-  13 2.46  14 2.48   9 2.58  12 2.58  11 2.60  10 2.60  16 2.69  15 2.71
                             1 2.78   7 2.78   4 2.95   4 3.01
   4  0.747  0.733  0.267-  13 2.46  14 2.48   9 2.58  12 2.58  11 2.60  10 2.60  16 2.69  15 2.71
                             2 2.78   8 2.78   3 2.95   3 3.01
   5  0.253  0.267  0.733-  13 2.46  14 2.48   9 2.58  12 2.58  11 2.60  10 2.60  16 2.69  15 2.71
                             1 2.78   7 2.78   6 2.95   6 3.01
   6  0.747  0.267  0.733-  13 2.46  14 2.48   9 2.58  12 2.58  11 2.60  10 2.60  16 2.69  15 2.71
                             2 2.78   8 2.78   5 2.95   5 3.01
   7  0.253  0.733  0.733-  13 2.46  14 2.48   9 2.58  12 2.58  11 2.60  10 2.60  16 2.69  15 2.71
                             3 2.78   5 2.78   8 2.95   8 3.01
   8  0.747  0.733  0.733-  13 2.46  14 2.48   9 2.58  12 2.58  11 2.60  10 2.60  16 2.69  15 2.71
                             4 2.78   6 2.78   7 2.95   7 3.01
   9  0.500  0.500  0.000-   1 2.58   2 2.58   3 2.58   4 2.58   5 2.58   6 2.58   7 2.58   8 2.58
                            10 2.98  13 2.98  16 2.98  13 2.98  16 2.98  10 2.98
  10  0.000  0.500  0.000-   1 2.60   2 2.60   3 2.60   4 2.60   5 2.60   6 2.60   7 2.60   8 2.60
                             9 2.98  14 2.98  15 2.98  14 2.98  15 2.98   9 2.98
  11  0.000  0.000  0.500-   1 2.60   2 2.60   3 2.60   4 2.60   5 2.60   6 2.60   7 2.60   8 2.60
                            12 2.98  14 2.98  15 2.98  15 2.98  14 2.98  12 2.98
  12  0.500  0.000  0.500-   1 2.58   2 2.58   3 2.58   4 2.58   5 2.58   6 2.58   7 2.58   8 2.58
                            11 2.98  13 2.98  16 2.98  16 2.98  13 2.98  11 2.98
  13  0.500  0.500  0.500-   1 2.46   2 2.46   3 2.46   4 2.46   5 2.46   6 2.46   7 2.46   8 2.46
                             9 2.98  12 2.98  14 2.98   9 2.98  12 2.98  14 2.98
  14  0.000  0.500  0.500-   1 2.48   2 2.48   3 2.48   4 2.48   5 2.48   6 2.48   7 2.48   8 2.48
                            10 2.98  11 2.98  13 2.98  10 2.98  11 2.98  13 2.98
  15  0.000  0.000  0.000-   1 2.71   2 2.71   3 2.71   4 2.71   5 2.71   6 2.71   7 2.71   8 2.71
                            10 2.98  11 2.98  16 2.98  11 2.98  10 2.98  16 2.98
  16  0.500  0.000  0.000-   1 2.69   2 2.69   3 2.69   4 2.69   5 2.69   6 2.69   7 2.69   8 2.69
                             9 2.98  12 2.98  15 2.98  12 2.98   9 2.98  15 2.98

  LATTYP: Found a simple cubic cell.
 ALAT       =     5.9641564135
  
  Lattice vectors:
  
 A1 = (   5.9641564135,   0.0000000000,   0.0000000000)
 A2 = (   0.0000000000,   5.9641564135,   0.0000000000)
 A3 = (   0.0000000000,   0.0000000000,   5.9641564135)


Analysis of symmetry for initial positions (statically):
=====================================================================
 Subroutine PRICEL returns:
 Original cell was already a primitive cell.
 

 Routine SETGRP: Setting up the symmetry group for a 
 simple cubic supercell.


 Subroutine GETGRP returns: Found 16 space group operations
 (whereof 16 operations were pure point group operations)
 out of a pool of 48 trial point group operations.


The static configuration has the point symmetry D_4h.


Analysis of symmetry for dynamics (positions and initial velocities):
=====================================================================
 Subroutine PRICEL returns:
 Original cell was already a primitive cell.
 

 Routine SETGRP: Setting up the symmetry group for a 
 simple cubic supercell.


 Subroutine GETGRP returns: Found 16 space group operations
 (whereof 16 operations were pure point group operations)
 out of a pool of 48 trial point group operations.


The dynamic configuration has the point symmetry D_4h.


Analysis of structural, dynamic, and magnetic symmetry:
=====================================================================
 Subroutine PRICEL returns:
 Original cell was already a primitive cell.
 

 Routine SETGRP: Setting up the symmetry group for a 
 simple cubic supercell.


 Subroutine GETGRP returns: Found 16 space group operations
 (whereof 16 operations were pure point group operations)
 out of a pool of 48 trial point group operations.


The magnetic configuration has the point symmetry D_4h.


 Subroutine INISYM returns: Found 16 space group operations
 (whereof 16 operations are pure point group operations),
 and found     1 'primitive' translations



 KPOINTS: k-points                                

Automatic generation of k-mesh.
Space group operators:
 irot       det(A)        alpha          n_x          n_y          n_z        tau_x        tau_y        tau_z
    1     1.000000     0.000000     1.000000     0.000000     0.000000     0.000000     0.000000     0.000000
    2    -1.000000     0.000000     1.000000     0.000000     0.000000     0.000000     0.000000     0.000000
    3     1.000000   180.000000     0.000000     0.707107     0.707107     0.000000     0.000000     0.000000
    4    -1.000000   180.000000     0.000000     0.707107     0.707107     0.000000     0.000000     0.000000
    5     1.000000   180.000000     0.000000     0.000000     1.000000     0.000000     0.000000     0.000000
    6    -1.000000   180.000000     0.000000     0.000000     1.000000     0.000000     0.000000     0.000000
    7     1.000000    90.000000    -1.000000     0.000000     0.000000     0.000000     0.000000     0.000000
    8    -1.000000    90.000000    -1.000000     0.000000     0.000000     0.000000     0.000000     0.000000
    9     1.000000   180.000000     1.000000     0.000000     0.000000     0.000000     0.000000     0.000000
   10    -1.000000   180.000000     1.000000     0.000000     0.000000     0.000000     0.000000     0.000000
   11     1.000000    90.000000     1.000000     0.000000     0.000000     0.000000     0.000000     0.000000
   12    -1.000000    90.000000     1.000000     0.000000     0.000000     0.000000     0.000000     0.000000
   13     1.000000   180.000000     0.000000     1.000000     0.000000     0.000000     0.000000     0.000000
   14    -1.000000   180.000000     0.000000     1.000000     0.000000     0.000000     0.000000     0.000000
   15     1.000000   180.000000     0.000000    -0.707107     0.707107     0.000000     0.000000     0.000000
   16    -1.000000   180.000000     0.000000    -0.707107     0.707107     0.000000     0.000000     0.000000
 
 Subroutine IBZKPT returns following result:
 ===========================================
 
 Found     40 irreducible k-points:
 
 Following reciprocal coordinates:
            Coordinates               Weight
  0.000000  0.000000  0.000000      1.000000
  0.142857  0.000000  0.000000      2.000000
  0.285714  0.000000  0.000000      2.000000
  0.428571  0.000000  0.000000      2.000000
  0.000000  0.142857  0.000000      4.000000
  0.142857  0.142857  0.000000      8.000000
  0.285714  0.142857  0.000000      8.000000
  0.428571  0.142857  0.000000      8.000000
  0.000000  0.285714  0.000000      4.000000
  0.142857  0.285714  0.000000      8.000000
  0.285714  0.285714  0.000000      8.000000
  0.428571  0.285714  0.000000      8.000000
  0.000000  0.428571  0.000000      4.000000
  0.142857  0.428571  0.000000      8.000000
  0.285714  0.428571  0.000000      8.000000
  0.428571  0.428571  0.000000      8.000000
  0.000000  0.142857  0.142857      4.000000
  0.142857  0.142857  0.142857      8.000000
  0.285714  0.142857  0.142857      8.000000
  0.428571  0.142857  0.142857      8.000000
  0.000000  0.285714  0.142857      8.000000
  0.142857  0.285714  0.142857     16.000000
  0.285714  0.285714  0.142857     16.000000
  0.428571  0.285714  0.142857     16.000000
  0.000000  0.428571  0.142857      8.000000
  0.142857  0.428571  0.142857     16.000000
  0.285714  0.428571  0.142857     16.000000
  0.428571  0.428571  0.142857     16.000000
  0.000000  0.285714  0.285714      4.000000
  0.142857  0.285714  0.285714      8.000000
  0.285714  0.285714  0.285714      8.000000
  0.428571  0.285714  0.285714      8.000000
  0.000000  0.428571  0.285714      8.000000
  0.142857  0.428571  0.285714     16.000000
  0.285714  0.428571  0.285714     16.000000
  0.428571  0.428571  0.285714     16.000000
  0.000000  0.428571  0.428571      4.000000
  0.142857  0.428571  0.428571      8.000000
  0.285714  0.428571  0.428571      8.000000
  0.428571  0.428571  0.428571      8.000000
 
 Following cartesian coordinates:
            Coordinates               Weight
  0.000000  0.000000  0.000000      1.000000
  0.137967  0.000000  0.000000      2.000000
  0.275934  0.000000  0.000000      2.000000
  0.413901  0.000000  0.000000      2.000000
  0.000000  0.137967  0.000000      4.000000
  0.137967  0.137967  0.000000      8.000000
  0.275934  0.137967  0.000000      8.000000
  0.413901  0.137967  0.000000      8.000000
  0.000000  0.275934  0.000000      4.000000
  0.137967  0.275934  0.000000      8.000000
  0.275934  0.275934  0.000000      8.000000
  0.413901  0.275934  0.000000      8.000000
  0.000000  0.413901  0.000000      4.000000
  0.137967  0.413901  0.000000      8.000000
  0.275934  0.413901  0.000000      8.000000
  0.413901  0.413901  0.000000      8.000000
  0.000000  0.137967  0.137967      4.000000
  0.137967  0.137967  0.137967      8.000000
  0.275934  0.137967  0.137967      8.000000
  0.413901  0.137967  0.137967      8.000000
  0.000000  0.275934  0.137967      8.000000
  0.137967  0.275934  0.137967     16.000000
  0.275934  0.275934  0.137967     16.000000
  0.413901  0.275934  0.137967     16.000000
  0.000000  0.413901  0.137967      8.000000
  0.137967  0.413901  0.137967     16.000000
  0.275934  0.413901  0.137967     16.000000
  0.413901  0.413901  0.137967     16.000000
  0.000000  0.275934  0.275934      4.000000
  0.137967  0.275934  0.275934      8.000000
  0.275934  0.275934  0.275934      8.000000
  0.413901  0.275934  0.275934      8.000000
  0.000000  0.413901  0.275934      8.000000
  0.137967  0.413901  0.275934     16.000000
  0.275934  0.413901  0.275934     16.000000
  0.413901  0.413901  0.275934     16.000000
  0.000000  0.413901  0.413901      4.000000
  0.137967  0.413901  0.413901      8.000000
  0.275934  0.413901  0.413901      8.000000
  0.413901  0.413901  0.413901      8.000000
 


--------------------------------------------------------------------------------------------------------




 Dimension of arrays:
   k-points           NKPTS =     40   k-points in BZ     NKDIM =     40   number of bands    NBANDS=     84
   number of dos      NEDOS =    301   number of ions     NIONS =     16
   non local maximal  LDIM  =      6   non local SUM 2l+1 LMDIM =     18
   total plane-waves  NPLWV =  46656
   max r-space proj   IRMAX =   4037   max aug-charges    IRDMAX=  25006
   dimension x,y,z NGX =    36 NGY =   36 NGZ =   36
   dimension x,y,z NGXF=    72 NGYF=   72 NGZF=   72
   support grid    NGXF=    72 NGYF=   72 NGZF=   72
   ions per type =               8   6   2
   NGX,Y,Z   is equivalent  to a cutoff of  10.03, 10.03, 10.03 a.u.
   NGXF,Y,Z  is equivalent  to a cutoff of  20.07, 20.07, 20.07 a.u.

 SYSTEM =  Testrun for NiMnIn                      
 POSCAR =  Ni2MnIn                                 

 Startparameter for this run:
   NWRITE =      2    write-flag & timer
   PREC   = normal    normal or accurate (medium, high low for compatibility)
   ISTART =      0    job   : 0-new  1-cont  2-samecut
   ICHARG =      2    charge: 1-file 2-atom 10-const
   ISPIN  =      2    spin polarized calculation?
   LNONCOLLINEAR =      F non collinear calculations
   LSORBIT =      F    spin-orbit coupling
   INIWAV =      1    electr: 0-lowe 1-rand  2-diag
   LASPH  =      F    aspherical Exc in radial PAW
   METAGGA=      F    non-selfconsistent MetaGGA calc.

 Electronic Relaxation 1
   ENCUT  =  550.0 eV  40.42 Ry    6.36 a.u.  11.40 11.40 11.40*2*pi/ulx,y,z
   ENINI  =  550.0     initial cutoff
   ENAUG  =  544.6 eV  augmentation charge cutoff
   NELM   =     60;   NELMIN=  2; NELMDL= -5     # of ELM steps 
   EDIFF  = 0.1E-04   stopping-criterion for ELM
   LREAL  =      T    real-space projection
   NLSPLINE    = F    spline interpolate recip. space projectors
   LCOMPAT=      F    compatible to vasp.4.4
   GGA_COMPAT  = T    GGA compatible to vasp.4.4-vasp.4.6
   LMAXPAW     = -100 max onsite density
   LMAXMIX     =    2 max onsite mixed and CHGCAR
   VOSKOWN=      0    Vosko Wilk Nusair interpolation
   ROPT   =   -0.00050  -0.00050  -0.00050
 Ionic relaxation
   EDIFFG = -.1E-01   stopping-criterion for IOM
   NSW    =   1000    number of steps for IOM
   NBLOCK =      1;   KBLOCK =   1000    inner block; outer block 
   IBRION =      2    ionic relax: 0-MD 1-quasi-New 2-CG
   NFREE  =      1    steps in history (QN), initial steepest desc. (CG)
   ISIF   =      2    stress and relaxation
   IWAVPR =     11    prediction:  0-non 1-charg 2-wave 3-comb
   ISYM   =      2    0-nonsym 1-usesym 2-fastsym
   LCORR  =      T    Harris-Foulkes like correction to forces

   POTIM  = 0.5000    time-step for ionic-motion
   TEIN   =    0.0    initial temperature
   TEBEG  =    0.0;   TEEND  =   0.0 temperature during run
   SMASS  =  -3.00    Nose mass-parameter (am)
   estimated Nose-frequenzy (Omega)   =  0.10E-29 period in steps =****** mass=  -0.813E-27a.u.
   SCALEE = 1.0000    scale energy and forces
   NPACO  =    256;   APACO  = 16.0  distance and # of slots for P.C.
   PSTRESS=    0.0 pullay stress

  Mass of Ions in am
   POMASS =  58.69 54.94114.82
  Ionic Valenz
   ZVAL   =  10.00  7.00  3.00
  Atomic Wigner-Seitz radii
   RWIGS  =  -1.00 -1.00 -1.00
  virtual crystal weights 
   VCA    =   1.00  1.00  1.00
   NELECT =     128.0000    total number of electrons
   NUPDOWN=      -1.0000    fix difference up-down

 DOS related values:
   EMIN   =  10.00;   EMAX   =-10.00  energy-range for DOS
   EFERMI =   0.00
   ISMEAR =     0;   SIGMA  =   0.02  broadening in eV -4-tet -1-fermi 0-gaus

 Electronic relaxation 2 (details)
   IALGO  =     68    algorithm
   LDIAG  =      T    sub-space diagonalisation (order eigenvalues)
   LSUBROT=      F    optimize rotation matrix (better conditioning)
   TURBO    =      0    0=normal 1=particle mesh
   IRESTART =      0    0=no restart 2=restart with 2 vectors
   NREBOOT  =      0    no. of reboots
   NMIN     =      0    reboot dimension
   EREF     =   0.00    reference energy to select bands
   IMIX   =      4    mixing-type and parameters
     AMIX     =   0.40;   BMIX     =  1.00
     AMIX_MAG =   1.60;   BMIX_MAG =  1.00
     AMIN     =   0.10
     WC   =   100.;   INIMIX=   1;  MIXPRE=   1;  MAXMIX= -45

 Intra band minimization:
   WEIMIN = 0.0010     energy-eigenvalue tresh-hold
   EBREAK =  0.30E-07  absolut break condition
   DEPER  =   0.30     relativ break condition  

   TIME   =   0.40     timestep for ELM

  volume/ion in A,a.u.               =      13.26        89.48
  Fermi-wavevector in a.u.,A,eV,Ry     =   1.383341  2.614135 26.036534  1.913631
  Thomas-Fermi vector in A             =   2.507948

 Write flags
   LWAVE        =      F    write WAVECAR
   LDOWNSAMPLE  =      F    k-point downsampling of WAVECAR
   LCHARG       =      T    write CHGCAR
   LVTOT        =      F    write LOCPOT, total local potential
   LVHAR        =      F    write LOCPOT, Hartree potential only
   LELF         =      F    write electronic localiz. function (ELF)
   LORBIT       =     11    0 simple, 1 ext, 2 COOP (PROOUT), +10 PAW based schemes


 Dipole corrections
   LMONO  =      F    monopole corrections only (constant potential shift)
   LDIPOL =      F    correct potential (dipole corrections)
   IDIPOL =      0    1-x, 2-y, 3-z, 4-all directions 
   EPSILON=  1.0000000 bulk dielectric constant

 Exchange correlation treatment:
   GGA     =    --    GGA type
   LEXCH   =     8    internal setting for exchange type
   VOSKOWN=      0    Vosko Wilk Nusair interpolation
   LHFCALC =     F    Hartree Fock is set to
   LHFONE  =     F    Hartree Fock one center treatment
   AEXX    =    0.0000 exact exchange contribution

 Linear response parameters
   LEPSILON=     F    determine dielectric tensor
   LRPA    =     F    only Hartree local field effects (RPA)
   LNABLA  =     F    use nabla operator in PAW spheres
   LVEL    =     F    velocity operator in full k-point grid
   LINTERFAST=   F  fast interpolation
   KINTER  =     0    interpolate to denser k-point grid
   CSHIFT  =0.1000    complex shift for real part using Kramers Kronig
   OMEGAMAX=  -1.0    maximum frequency
   DEG_THRESHOLD= 0.2000000E-02 threshold for treating states as degnerate
   RTIME   =   -0.100 relaxation time in fs
  (WPLASMAI=    0.000 imaginary part of plasma frequency in eV, 0.658/RTIME)
   DFIELD  = 0.0000000 0.0000000 0.0000000 field for delta impulse in time

 Orbital magnetization related:
   ORBITALMAG=     F  switch on orbital magnetization
   LCHIMAG   =     F  perturbation theory with respect to B field
   DQ        =  0.001000  dq finite difference perturbation B field
   LLRAUG    =     F  two centre corrections for induced B field



--------------------------------------------------------------------------------------------------------


 conjugate gradient relaxation of ions
 charge density and potential will be updated during run
 spin polarized calculation
 RMM-DIIS sequential band-by-band and
  variant of blocked Davidson during initial phase
 perform sub-space diagonalisation
    before iterative eigenvector-optimisation
 modified Broyden-mixing scheme, WC =      100.0
 initial mixing is a Kerker type mixing with AMIX =  0.4000 and BMIX =      1.0000
 Hartree-type preconditioning will be used
 using additional bands           20
 real space projection scheme for non local part
 use partial core corrections
 calculate Harris-corrections to forces   (improved forces if not selfconsistent)
 use gradient corrections 
 use of overlap-Matrix (Vanderbilt PP)
 Gauss-broadening in eV      SIGMA  =   0.02


--------------------------------------------------------------------------------------------------------


  energy-cutoff  :      550.00
  volume of cell :      212.15
      direct lattice vectors                 reciprocal lattice vectors
     5.964156413  0.000000000  0.000000000     0.167668306  0.000000000  0.000000000
     0.000000000  5.964156413  0.000000000     0.000000000  0.167668306  0.000000000
     0.000000000  0.000000000  5.964156413     0.000000000  0.000000000  0.167668306

  length of vectors
     5.964156413  5.964156413  5.964156413     0.167668306  0.167668306  0.167668306



 k-points in units of 2pi/SCALE and weight: k-points                                
   0.00000000  0.00000000  0.00000000       0.003
   0.13796706  0.00000000  0.00000000       0.006
   0.27593413  0.00000000  0.00000000       0.006
   0.41390119  0.00000000  0.00000000       0.006
   0.00000000  0.13796706  0.00000000       0.012
   0.13796706  0.13796706  0.00000000       0.023
   0.27593413  0.13796706  0.00000000       0.023
   0.41390119  0.13796706  0.00000000       0.023
   0.00000000  0.27593413  0.00000000       0.012
   0.13796706  0.27593413  0.00000000       0.023
   0.27593413  0.27593413  0.00000000       0.023
   0.41390119  0.27593413  0.00000000       0.023
   0.00000000  0.41390119  0.00000000       0.012
   0.13796706  0.41390119  0.00000000       0.023
   0.27593413  0.41390119  0.00000000       0.023
   0.41390119  0.41390119  0.00000000       0.023
   0.00000000  0.13796706  0.13796706       0.012
   0.13796706  0.13796706  0.13796706       0.023
   0.27593413  0.13796706  0.13796706       0.023
   0.41390119  0.13796706  0.13796706       0.023
   0.00000000  0.27593413  0.13796706       0.023
   0.13796706  0.27593413  0.13796706       0.047
   0.27593413  0.27593413  0.13796706       0.047
   0.41390119  0.27593413  0.13796706       0.047
   0.00000000  0.41390119  0.13796706       0.023
   0.13796706  0.41390119  0.13796706       0.047
   0.27593413  0.41390119  0.13796706       0.047
   0.41390119  0.41390119  0.13796706       0.047
   0.00000000  0.27593413  0.27593413       0.012
   0.13796706  0.27593413  0.27593413       0.023
   0.27593413  0.27593413  0.27593413       0.023
   0.41390119  0.27593413  0.27593413       0.023
   0.00000000  0.41390119  0.27593413       0.023
   0.13796706  0.41390119  0.27593413       0.047
   0.27593413  0.41390119  0.27593413       0.047
   0.41390119  0.41390119  0.27593413       0.047
   0.00000000  0.41390119  0.41390119       0.012
   0.13796706  0.41390119  0.41390119       0.023
   0.27593413  0.41390119  0.41390119       0.023
   0.41390119  0.41390119  0.41390119       0.023

 k-points in reciprocal lattice and weights: k-points                                
   0.00000000  0.00000000  0.00000000       0.003
   0.14285714  0.00000000  0.00000000       0.006
   0.28571429  0.00000000  0.00000000       0.006
   0.42857143  0.00000000  0.00000000       0.006
   0.00000000  0.14285714  0.00000000       0.012
   0.14285714  0.14285714  0.00000000       0.023
   0.28571429  0.14285714  0.00000000       0.023
   0.42857143  0.14285714  0.00000000       0.023
   0.00000000  0.28571429  0.00000000       0.012
   0.14285714  0.28571429  0.00000000       0.023
   0.28571429  0.28571429  0.00000000       0.023
   0.42857143  0.28571429  0.00000000       0.023
   0.00000000  0.42857143  0.00000000       0.012
   0.14285714  0.42857143  0.00000000       0.023
   0.28571429  0.42857143  0.00000000       0.023
   0.42857143  0.42857143  0.00000000       0.023
   0.00000000  0.14285714  0.14285714       0.012
   0.14285714  0.14285714  0.14285714       0.023
   0.28571429  0.14285714  0.14285714       0.023
   0.42857143  0.14285714  0.14285714       0.023
   0.00000000  0.28571429  0.14285714       0.023
   0.14285714  0.28571429  0.14285714       0.047
   0.28571429  0.28571429  0.14285714       0.047
   0.42857143  0.28571429  0.14285714       0.047
   0.00000000  0.42857143  0.14285714       0.023
   0.14285714  0.42857143  0.14285714       0.047
   0.28571429  0.42857143  0.14285714       0.047
   0.42857143  0.42857143  0.14285714       0.047
   0.00000000  0.28571429  0.28571429       0.012
   0.14285714  0.28571429  0.28571429       0.023
   0.28571429  0.28571429  0.28571429       0.023
   0.42857143  0.28571429  0.28571429       0.023
   0.00000000  0.42857143  0.28571429       0.023
   0.14285714  0.42857143  0.28571429       0.047
   0.28571429  0.42857143  0.28571429       0.047
   0.42857143  0.42857143  0.28571429       0.047
   0.00000000  0.42857143  0.42857143       0.012
   0.14285714  0.42857143  0.42857143       0.023
   0.28571429  0.42857143  0.42857143       0.023
   0.42857143  0.42857143  0.42857143       0.023

 position of ions in fractional coordinates (direct lattice) 
   0.25253651  0.26670509  0.26670509
   0.74746349  0.26670509  0.26670509
   0.25253651  0.73329491  0.26670509
   0.74746349  0.73329491  0.26670509
   0.25253651  0.26670509  0.73329491
   0.74746349  0.26670509  0.73329491
   0.25253651  0.73329491  0.73329491
   0.74746349  0.73329491  0.73329491
   0.50000000  0.50000000  0.00000000
   0.00000000  0.50000000  0.00000000
   0.00000000  0.00000000  0.50000000
   0.50000000  0.00000000  0.50000000
   0.50000000  0.50000000  0.50000000
   0.00000000  0.50000000  0.50000000
   0.00000000  0.00000000  0.00000000
   0.50000000  0.00000000  0.00000000

 position of ions in cartesian coordinates  (Angst):
   1.50616722  1.59067085  1.59067085
   4.45798920  1.59067085  1.59067085
   1.50616722  4.37348556  1.59067085
   4.45798920  4.37348556  1.59067085
   1.50616722  1.59067085  4.37348556
   4.45798920  1.59067085  4.37348556
   1.50616722  4.37348556  4.37348556
   4.45798920  4.37348556  4.37348556
   2.98207821  2.98207821  0.00000000
   0.00000000  2.98207821  0.00000000
   0.00000000  0.00000000  2.98207821
   2.98207821  0.00000000  2.98207821
   2.98207821  2.98207821  2.98207821
   0.00000000  2.98207821  2.98207821
   0.00000000  0.00000000  0.00000000
   2.98207821  0.00000000  0.00000000



--------------------------------------------------------------------------------------------------------


 k-point  1 :   0.0000 0.0000 0.0000  plane waves:    6235
 k-point  2 :   0.1429 0.0000 0.0000  plane waves:    6211
 k-point  3 :   0.2857 0.0000 0.0000  plane waves:    6195
 k-point  4 :   0.4286 0.0000 0.0000  plane waves:    6222
 k-point  5 :   0.0000 0.1429 0.0000  plane waves:    6211
 k-point  6 :   0.1429 0.1429 0.0000  plane waves:    6226
 k-point  7 :   0.2857 0.1429 0.0000  plane waves:    6226
 k-point  8 :   0.4286 0.1429 0.0000  plane waves:    6222
 k-point  9 :   0.0000 0.2857 0.0000  plane waves:    6195
 k-point 10 :   0.1429 0.2857 0.0000  plane waves:    6226
 k-point 11 :   0.2857 0.2857 0.0000  plane waves:    6222
 k-point 12 :   0.4286 0.2857 0.0000  plane waves:    6210
 k-point 13 :   0.0000 0.4286 0.0000  plane waves:    6222
 k-point 14 :   0.1429 0.4286 0.0000  plane waves:    6222
 k-point 15 :   0.2857 0.4286 0.0000  plane waves:    6210
 k-point 16 :   0.4286 0.4286 0.0000  plane waves:    6200
 k-point 17 :   0.0000 0.1429 0.1429  plane waves:    6226
 k-point 18 :   0.1429 0.1429 0.1429  plane waves:    6235
 k-point 19 :   0.2857 0.1429 0.1429  plane waves:    6222
 k-point 20 :   0.4286 0.1429 0.1429  plane waves:    6208
 k-point 21 :   0.0000 0.2857 0.1429  plane waves:    6226
 k-point 22 :   0.1429 0.2857 0.1429  plane waves:    6222
 k-point 23 :   0.2857 0.2857 0.1429  plane waves:    6214
 k-point 24 :   0.4286 0.2857 0.1429  plane waves:    6211
 k-point 25 :   0.0000 0.4286 0.1429  plane waves:    6222
 k-point 26 :   0.1429 0.4286 0.1429  plane waves:    6208
 k-point 27 :   0.2857 0.4286 0.1429  plane waves:    6211
 k-point 28 :   0.4286 0.4286 0.1429  plane waves:    6217
 k-point 29 :   0.0000 0.2857 0.2857  plane waves:    6222
 k-point 30 :   0.1429 0.2857 0.2857  plane waves:    6214
 k-point 31 :   0.2857 0.2857 0.2857  plane waves:    6217
 k-point 32 :   0.4286 0.2857 0.2857  plane waves:    6220
 k-point 33 :   0.0000 0.4286 0.2857  plane waves:    6210
 k-point 34 :   0.1429 0.4286 0.2857  plane waves:    6211
 k-point 35 :   0.2857 0.4286 0.2857  plane waves:    6220
 k-point 36 :   0.4286 0.4286 0.2857  plane waves:    6200
 k-point 37 :   0.0000 0.4286 0.4286  plane waves:    6200
 k-point 38 :   0.1429 0.4286 0.4286  plane waves:    6217
 k-point 39 :   0.2857 0.4286 0.4286  plane waves:    6200
 k-point 40 :   0.4286 0.4286 0.4286  plane waves:    6167

 maximum and minimum number of plane-waves per node :      6235     6167

 maximum number of plane-waves:      6235
 maximum index in each direction: 
   IXMAX=   11   IYMAX=   11   IZMAX=   11
   IXMIN=  -11   IYMIN=  -11   IZMIN=  -11


 serial   3D FFT for wavefunctions
 parallel 3D FFT for charge:
    minimum data exchange during FFTs selected (reduces bandwidth)


 total amount of memory used by VASP MPI-rank0   103638. kBytes
=======================================================================

   base      :      30000. kBytes
   nonlr-proj:       6809. kBytes
   fftplans  :       1269. kBytes
   grid      :       6573. kBytes
   one-center:        497. kBytes
   wavefun   :      58490. kBytes

     INWAV:  cpu time    0.0000: real time    0.0000
 Broyden mixing: mesh for mixing (old mesh)
   NGX = 23   NGY = 23   NGZ = 23
  (NGX  = 72   NGY  = 72   NGZ  = 72)
  gives a total of  12167 points

 initial charge density was supplied:
 charge density of overlapping atoms calculated
 number of electron     128.0000000 magnetization       8.8000000
 keeping initial charge density in first step


--------------------------------------------------------------------------------------------------------


 Maximum index for non-local projection operator         3887
 Maximum index for augmentation-charges         2111 (set IRDMAX)


--------------------------------------------------------------------------------------------------------


 First call to EWALD:  gamma=   0.297
 Maximum number of real-space cells 3x 3x 3
 Maximum number of reciprocal cells 3x 3x 3

    FEWALD:  cpu time    0.0021: real time    0.0021


--------------------------------------- Iteration      1(   1)  ---------------------------------------


    POTLOK:  cpu time    0.0989: real time    0.1044
    SETDIJ:  cpu time    0.0356: real time    0.0357
     EDDAV:  cpu time   23.4905: real time   23.5271
       DOS:  cpu time    0.0036: real time    0.0036
    --------------------------------------------
      LOOP:  cpu time   23.6287: real time   23.6708

 eigenvalue-minimisations  : 13440
 total energy-change (2. order) : 0.1067279E+04  (-0.5427208E+04)
 number of electron     128.0000000 magnetization       8.8000000
 augmentation part      128.0000000 magnetization       8.8000000

 Free energy of the ion-electron system (eV)
  ---------------------------------------------------
  alpha Z        PSCENC =       530.39605273
  Ewald energy   TEWEN  =     -9181.39068822
  -Hartree energ DENC   =     -3241.29982851
  -exchange      EXHF   =         0.00000000
  -V(xc)+E(xc)   XCENC  =        78.29671906
  PAW double counting   =     10320.96726947   -10647.99417394
  entropy T*S    EENTRO =        -0.00174407
  eigenvalues    EBANDS =      1978.84373643
  atomic energy  EATOM  =     11229.46195210
  Solvation  Ediel_sol  =         0.00000000
  ---------------------------------------------------
  free energy    TOTEN  =      1067.27929505 eV

  energy without entropy =     1067.28103912  energy(sigma->0) =     1067.28016708


--------------------------------------------------------------------------------------------------------




--------------------------------------- Iteration      1(   2)  ---------------------------------------


     EDDAV:  cpu time   23.3714: real time   24.2561
       DOS:  cpu time    0.0037: real time    0.0037
    --------------------------------------------
      LOOP:  cpu time   23.3751: real time   24.2598

 eigenvalue-minimisations  : 13440
 total energy-change (2. order) :-0.1066183E+04  (-0.1032950E+04)
 number of electron     128.0000000 magnetization       8.8000000
 augmentation part      128.0000000 magnetization       8.8000000

 Free energy of the ion-electron system (eV)
  ---------------------------------------------------
  alpha Z        PSCENC =       530.39605273
  Ewald energy   TEWEN  =     -9181.39068822
  -Hartree energ DENC   =     -3241.29982851
  -exchange      EXHF   =         0.00000000
  -V(xc)+E(xc)   XCENC  =        78.29671906
  PAW double counting   =     10320.96726947   -10647.99417394
  entropy T*S    EENTRO =        -0.00232159
  eigenvalues    EBANDS =       912.66082357
  atomic energy  EATOM  =     11229.46195210
  Solvation  Ediel_sol  =         0.00000000
  ---------------------------------------------------
  free energy    TOTEN  =         1.09580467 eV

  energy without entropy =        1.09812626  energy(sigma->0) =        1.09696546


--------------------------------------------------------------------------------------------------------




--------------------------------------- Iteration      1(   3)  ---------------------------------------


     EDDAV:  cpu time   25.6236: real time   25.7284
       DOS:  cpu time    0.0038: real time    0.0038
    --------------------------------------------
      LOOP:  cpu time   25.6273: real time   25.7322

 eigenvalue-minimisations  : 15048
 total energy-change (2. order) :-0.1109683E+03  (-0.9972252E+02)
 number of electron     128.0000000 magnetization       8.8000000
 augmentation part      128.0000000 magnetization       8.8000000

 Free energy of the ion-electron system (eV)
  ---------------------------------------------------
  alpha Z        PSCENC =       530.39605273
  Ewald energy   TEWEN  =     -9181.39068822
  -Hartree energ DENC   =     -3241.29982851
  -exchange      EXHF   =         0.00000000
  -V(xc)+E(xc)   XCENC  =        78.29671906
  PAW double counting   =     10320.96726947   -10647.99417394
  entropy T*S    EENTRO =        -0.00424247
  eigenvalues    EBANDS =       801.69444148
  atomic energy  EATOM  =     11229.46195210
  Solvation  Ediel_sol  =         0.00000000
  ---------------------------------------------------
  free energy    TOTEN  =      -109.87249830 eV

  energy without entropy =     -109.86825583  energy(sigma->0) =     -109.87037706


--------------------------------------------------------------------------------------------------------




--------------------------------------- Iteration      1(   4)  ---------------------------------------


     EDDAV:  cpu time   33.2238: real time   33.3002
       DOS:  cpu time    0.0038: real time    0.0038
    --------------------------------------------
      LOOP:  cpu time   33.2276: real time   33.3040

 eigenvalue-minimisations  : 20496
 total energy-change (2. order) :-0.6813116E+01  (-0.6433883E+01)
 number of electron     128.0000000 magnetization       8.8000000
 augmentation part      128.0000000 magnetization       8.8000000

 Free energy of the ion-electron system (eV)
  ---------------------------------------------------
  alpha Z        PSCENC =       530.39605273
  Ewald energy   TEWEN  =     -9181.39068822
  -Hartree energ DENC   =     -3241.29982851
  -exchange      EXHF   =         0.00000000
  -V(xc)+E(xc)   XCENC  =        78.29671906
  PAW double counting   =     10320.96726947   -10647.99417394
  entropy T*S    EENTRO =        -0.00405017
  eigenvalues    EBANDS =       794.88113349
  atomic energy  EATOM  =     11229.46195210
  Solvation  Ediel_sol  =         0.00000000
  ---------------------------------------------------
  free energy    TOTEN  =      -116.68561399 eV

  energy without entropy =     -116.68156382  energy(sigma->0) =     -116.68358891


--------------------------------------------------------------------------------------------------------




--------------------------------------- Iteration      1(   5)  ---------------------------------------


     EDDAV:  cpu time   31.9718: real time   32.0281
       DOS:  cpu time    0.0038: real time    0.0038
    CHARGE:  cpu time    0.6917: real time    0.6927
    MIXING:  cpu time    0.0016: real time    0.0016
    --------------------------------------------
      LOOP:  cpu time   32.6689: real time   32.7263

 eigenvalue-minimisations  : 19680
 total energy-change (2. order) :-0.2317326E+00  (-0.2307018E+00)
 number of electron     127.9999979 magnetization       6.7317996
 augmentation part       60.5040751 magnetization       4.5114486

 Broyden mixing:
  rms(total) = 0.34768E+01    rms(broyden)= 0.34768E+01
  rms(prec ) = 0.53223E+01
  weight for this iteration     100.00

 Free energy of the ion-electron system (eV)
  ---------------------------------------------------
  alpha Z        PSCENC =       530.39605273
  Ewald energy   TEWEN  =     -9181.39068822
  -Hartree energ DENC   =     -3241.29982851
  -exchange      EXHF   =         0.00000000
  -V(xc)+E(xc)   XCENC  =        78.29671906
  PAW double counting   =     10320.96726947   -10647.99417394
  entropy T*S    EENTRO =        -0.00387097
  eigenvalues    EBANDS =       794.64922164
  atomic energy  EATOM  =     11229.46195210
  Solvation  Ediel_sol  =         0.00000000
  ---------------------------------------------------
  free energy    TOTEN  =      -116.91734663 eV

  energy without entropy =     -116.91347567  energy(sigma->0) =     -116.91541115


--------------------------------------------------------------------------------------------------------




--------------------------------------- Iteration      1(   6)  ---------------------------------------


    POTLOK:  cpu time    0.1035: real time    0.1045
    SETDIJ:  cpu time    0.0380: real time    0.0381
    EDDIAG:  cpu time    3.3415: real time    3.3491
  RMM-DIIS:  cpu time   10.5439: real time   10.5597
    ORTHCH:  cpu time    0.6319: real time    0.6329
       DOS:  cpu time    0.0040: real time    0.0040
    CHARGE:  cpu time    0.6982: real time    0.6992
    MIXING:  cpu time    0.0017: real time    0.0017
    --------------------------------------------
      LOOP:  cpu time   15.3628: real time   15.3890

 eigenvalue-minimisations  : 13440
 total energy-change (2. order) : 0.8437575E+01  (-0.1556870E+02)
 number of electron     128.0000036 magnetization       7.2069636
 augmentation part       70.0856603 magnetization       5.2581918

 Broyden mixing:
  rms(total) = 0.41955E+01    rms(broyden)= 0.41955E+01
  rms(prec ) = 0.53482E+01
  weight for this iteration     100.00

 eigenvalues of (default mixing * dielectric matrix)
  average eigenvalue GAMMA=   0.2428
  0.2428

 Free energy of the ion-electron system (eV)
  ---------------------------------------------------
  alpha Z        PSCENC =       530.39605273
  Ewald energy   TEWEN  =     -9181.39068822
  -Hartree energ DENC   =     -3000.11264489
  -exchange      EXHF   =         0.00000000
  -V(xc)+E(xc)   XCENC  =        65.60578805
  PAW double counting   =     11103.72826902   -11395.54055899
  entropy T*S    EENTRO =        -0.00514493
  eigenvalues    EBANDS =       539.37720374
  atomic energy  EATOM  =     11229.46195210
  Solvation  Ediel_sol  =         0.00000000
  ---------------------------------------------------
  free energy    TOTEN  =      -108.47977139 eV

  energy without entropy =     -108.47462646  energy(sigma->0) =     -108.47719892


--------------------------------------------------------------------------------------------------------




--------------------------------------- Iteration      1(   7)  ---------------------------------------


    POTLOK:  cpu time    0.0979: real time    0.0981
    SETDIJ:  cpu time    0.0368: real time    0.0369
    EDDIAG:  cpu time    3.3153: real time    3.3203
  RMM-DIIS:  cpu time   10.6447: real time   10.6605
    ORTHCH:  cpu time    0.6347: real time    0.6358
       DOS:  cpu time    0.0037: real time    0.0038
    CHARGE:  cpu time    0.6964: real time    0.6972
    MIXING:  cpu time    0.0017: real time    0.0017
    --------------------------------------------
      LOOP:  cpu time   15.4313: real time   15.4542

 eigenvalue-minimisations  : 13612
 total energy-change (2. order) :-0.5959165E+00  (-0.1790005E+01)
 number of electron     127.9999968 magnetization       6.6123396
 augmentation part       69.4541992 magnetization       5.3431311

 Broyden mixing:
  rms(total) = 0.34702E+01    rms(broyden)= 0.34702E+01
  rms(prec ) = 0.61714E+01
  weight for this iteration     100.00

 eigenvalues of (default mixing * dielectric matrix)
  average eigenvalue GAMMA=   0.4349
  0.4349  0.4349

 Free energy of the ion-electron system (eV)
  ---------------------------------------------------
  alpha Z        PSCENC =       530.39605273
  Ewald energy   TEWEN  =     -9181.39068822
  -Hartree energ DENC   =     -3010.92795738
  -exchange      EXHF   =         0.00000000
  -V(xc)+E(xc)   XCENC  =        68.54544936
  PAW double counting   =     11447.65411273   -11751.40017079
  entropy T*S    EENTRO =        -0.00306239
  eigenvalues    EBANDS =       558.58862398
  atomic energy  EATOM  =     11229.46195210
  Solvation  Ediel_sol  =         0.00000000
  ---------------------------------------------------
  free energy    TOTEN  =      -109.07568789 eV

  energy without entropy =     -109.07262549  energy(sigma->0) =     -109.07415669


--------------------------------------------------------------------------------------------------------




--------------------------------------- Iteration      1(   8)  ---------------------------------------


    POTLOK:  cpu time    0.0987: real time    0.0990
    SETDIJ:  cpu time    0.0365: real time    0.0366
    EDDIAG:  cpu time    3.3475: real time    3.3523
  RMM-DIIS:  cpu time   10.4556: real time   10.4712
    ORTHCH:  cpu time    0.6368: real time    0.6376
       DOS:  cpu time    0.0038: real time    0.0038
    CHARGE:  cpu time    0.7022: real time    0.7030
    MIXING:  cpu time    0.0018: real time    0.0018
    --------------------------------------------
      LOOP:  cpu time   15.2829: real time   15.3053

 eigenvalue-minimisations  : 13440
 total energy-change (2. order) : 0.1640404E+01  (-0.2349569E+01)
 number of electron     128.0000041 magnetization       5.9063415
 augmentation part       68.4589280 magnetization       4.8588405

 Broyden mixing:
  rms(total) = 0.29295E+01    rms(broyden)= 0.29294E+01
  rms(prec ) = 0.54943E+01
  weight for this iteration     100.00

 eigenvalues of (default mixing * dielectric matrix)
  average eigenvalue GAMMA=   0.4245
  0.5564  0.5564  0.1607

 Free energy of the ion-electron system (eV)
  ---------------------------------------------------
  alpha Z        PSCENC =       530.39605273
  Ewald energy   TEWEN  =     -9181.39068822
  -Hartree energ DENC   =     -3049.40304412
  -exchange      EXHF   =         0.00000000
  -V(xc)+E(xc)   XCENC  =        71.41460726
  PAW double counting   =     11743.12839033   -12065.58733657
  entropy T*S    EENTRO =        -0.00278756
  eigenvalues    EBANDS =       614.54757020
  atomic energy  EATOM  =     11229.46195210
  Solvation  Ediel_sol  =         0.00000000
  ---------------------------------------------------
  free energy    TOTEN  =      -107.43528385 eV

  energy without entropy =     -107.43249629  energy(sigma->0) =     -107.43389007


--------------------------------------------------------------------------------------------------------




--------------------------------------- Iteration      1(   9)  ---------------------------------------


    POTLOK:  cpu time    0.0990: real time    0.0992
    SETDIJ:  cpu time    0.0368: real time    0.0368
    EDDIAG:  cpu time    3.3614: real time    3.3673
  RMM-DIIS:  cpu time   10.5804: real time   10.5959
    ORTHCH:  cpu time    0.6339: real time    0.6349
       DOS:  cpu time    0.0041: real time    0.0041
    CHARGE:  cpu time    0.7011: real time    0.7021
    MIXING:  cpu time    0.0018: real time    0.0018
    --------------------------------------------
      LOOP:  cpu time   15.4186: real time   15.4421

 eigenvalue-minimisations  : 13535
 total energy-change (2. order) : 0.3746707E+01  (-0.5116238E+00)
 number of electron     128.0000017 magnetization       6.2240590
 augmentation part       66.6820610 magnetization       4.1979462

 Broyden mixing:
  rms(total) = 0.16244E+01    rms(broyden)= 0.16243E+01
  rms(prec ) = 0.24962E+01
  weight for this iteration     100.00

 eigenvalues of (default mixing * dielectric matrix)
  average eigenvalue GAMMA=   0.5038
  1.0244  0.5091  0.3437  0.1379

 Free energy of the ion-electron system (eV)
  ---------------------------------------------------
  alpha Z        PSCENC =       530.39605273
  Ewald energy   TEWEN  =     -9181.39068822
  -Hartree energ DENC   =     -3065.57002602
  -exchange      EXHF   =         0.00000000
  -V(xc)+E(xc)   XCENC  =        72.53439366
  PAW double counting   =     11979.18559131   -12310.93492004
  entropy T*S    EENTRO =        -0.00402191
  eigenvalues    EBANDS =       642.63308913
  atomic energy  EATOM  =     11229.46195210
  Solvation  Ediel_sol  =         0.00000000
  ---------------------------------------------------
  free energy    TOTEN  =      -103.68857727 eV

  energy without entropy =     -103.68455536  energy(sigma->0) =     -103.68656631


--------------------------------------------------------------------------------------------------------




--------------------------------------- Iteration      1(  10)  ---------------------------------------


    POTLOK:  cpu time    0.1035: real time    0.1043
    SETDIJ:  cpu time    0.0385: real time    0.0386
    EDDIAG:  cpu time    3.3974: real time    3.4046
  RMM-DIIS:  cpu time   10.6061: real time   10.6231
    ORTHCH:  cpu time    0.6353: real time    0.6361
       DOS:  cpu time    0.0040: real time    0.0040
    CHARGE:  cpu time    0.6930: real time    0.6947
    MIXING:  cpu time    0.0019: real time    0.0019
    --------------------------------------------
      LOOP:  cpu time   15.4797: real time   15.5073

 eigenvalue-minimisations  : 13443
 total energy-change (2. order) : 0.5046165E+00  (-0.3027088E+00)
 number of electron     127.9999996 magnetization       6.6445000
 augmentation part       67.9828983 magnetization       4.8958500

 Broyden mixing:
  rms(total) = 0.10675E+01    rms(broyden)= 0.10674E+01
  rms(prec ) = 0.16362E+01
  weight for this iteration     100.00

 eigenvalues of (default mixing * dielectric matrix)
  average eigenvalue GAMMA=   0.4753
  1.0378  0.4925  0.4925  0.2137  0.1398

 Free energy of the ion-electron system (eV)
  ---------------------------------------------------
  alpha Z        PSCENC =       530.39605273
  Ewald energy   TEWEN  =     -9181.39068822
  -Hartree energ DENC   =     -3044.04743814
  -exchange      EXHF   =         0.00000000
  -V(xc)+E(xc)   XCENC  =        71.85920124
  PAW double counting   =     12227.97034839   -12560.50688957
  entropy T*S    EENTRO =        -0.00436367
  eigenvalues    EBANDS =       623.07786439
  atomic energy  EATOM  =     11229.46195210
  Solvation  Ediel_sol  =         0.00000000
  ---------------------------------------------------
  free energy    TOTEN  =      -103.18396075 eV

  energy without entropy =     -103.17959707  energy(sigma->0) =     -103.18177891


--------------------------------------------------------------------------------------------------------




--------------------------------------- Iteration      1(  11)  ---------------------------------------


    POTLOK:  cpu time    0.0988: real time    0.0989
    SETDIJ:  cpu time    0.0367: real time    0.0367
    EDDIAG:  cpu time    3.3662: real time    3.3712
  RMM-DIIS:  cpu time   10.5604: real time   10.5764
    ORTHCH:  cpu time    0.6404: real time    0.6412
       DOS:  cpu time    0.0039: real time    0.0039
    CHARGE:  cpu time    0.6967: real time    0.6976
    MIXING:  cpu time    0.0020: real time    0.0020
    --------------------------------------------
      LOOP:  cpu time   15.4051: real time   15.4280

 eigenvalue-minimisations  : 13469
 total energy-change (2. order) : 0.1832685E+00  (-0.5455129E-01)
 number of electron     128.0000006 magnetization       7.2092003
 augmentation part       67.5630004 magnetization       5.3536629

 Broyden mixing:
  rms(total) = 0.60294E+00    rms(broyden)= 0.60292E+00
  rms(prec ) = 0.68178E+00
  weight for this iteration     100.00

 eigenvalues of (default mixing * dielectric matrix)
  average eigenvalue GAMMA=   0.5655
  0.8699  0.8699  0.6576  0.6576  0.1996  0.1386

 Free energy of the ion-electron system (eV)
  ---------------------------------------------------
  alpha Z        PSCENC =       530.39605273
  Ewald energy   TEWEN  =     -9181.39068822
  -Hartree energ DENC   =     -3047.71038600
  -exchange      EXHF   =         0.00000000
  -V(xc)+E(xc)   XCENC  =        72.92741938
  PAW double counting   =     12382.72529789   -12719.83614297
  entropy T*S    EENTRO =        -0.00294823
  eigenvalues    EBANDS =       630.42875106
  atomic energy  EATOM  =     11229.46195210
  Solvation  Ediel_sol  =         0.00000000
  ---------------------------------------------------
  free energy    TOTEN  =      -103.00069226 eV

  energy without entropy =     -102.99774403  energy(sigma->0) =     -102.99921815


--------------------------------------------------------------------------------------------------------




--------------------------------------- Iteration      1(  12)  ---------------------------------------


    POTLOK:  cpu time    0.0985: real time    0.0988
    SETDIJ:  cpu time    0.0365: real time    0.0366
    EDDIAG:  cpu time    3.3683: real time    3.3732
  RMM-DIIS:  cpu time   10.5648: real time   10.5831
    ORTHCH:  cpu time    0.6421: real time    0.6429
       DOS:  cpu time    0.0038: real time    0.0039
    CHARGE:  cpu time    0.6963: real time    0.6972
    MIXING:  cpu time    0.0021: real time    0.0021
    --------------------------------------------
      LOOP:  cpu time   15.4125: real time   15.4377

 eigenvalue-minimisations  : 13507
 total energy-change (2. order) :-0.2249538E+00  (-0.3953314E-01)
 number of electron     128.0000010 magnetization       8.0337219
 augmentation part       67.4169479 magnetization       6.0745949

 Broyden mixing:
  rms(total) = 0.60841E+00    rms(broyden)= 0.60840E+00
  rms(prec ) = 0.82320E+00
  weight for this iteration     100.00

 eigenvalues of (default mixing * dielectric matrix)
  average eigenvalue GAMMA=   0.6373
  1.7043  0.7451  0.7451  0.6649  0.1383  0.2023  0.2612

 Free energy of the ion-electron system (eV)
  ---------------------------------------------------
  alpha Z        PSCENC =       530.39605273
  Ewald energy   TEWEN  =     -9181.39068822
  -Hartree energ DENC   =     -3047.74793964
  -exchange      EXHF   =         0.00000000
  -V(xc)+E(xc)   XCENC  =        73.93359626
  PAW double counting   =     12519.53453975   -12859.65509554
  entropy T*S    EENTRO =        -0.00409147
  eigenvalues    EBANDS =       632.24602798
  atomic energy  EATOM  =     11229.46195210
  Solvation  Ediel_sol  =         0.00000000
  ---------------------------------------------------
  free energy    TOTEN  =      -103.22564604 eV

  energy without entropy =     -103.22155457  energy(sigma->0) =     -103.22360031


--------------------------------------------------------------------------------------------------------




--------------------------------------- Iteration      1(  13)  ---------------------------------------


    POTLOK:  cpu time    0.0988: real time    0.0988
    SETDIJ:  cpu time    0.0367: real time    0.0367
    EDDIAG:  cpu time    3.3922: real time    3.4204
  RMM-DIIS:  cpu time   10.8144: real time   10.8322
    ORTHCH:  cpu time    0.6400: real time    0.6408
       DOS:  cpu time    0.0040: real time    0.0040
    CHARGE:  cpu time    0.6894: real time    0.6905
    MIXING:  cpu time    0.0023: real time    0.0023
    --------------------------------------------
      LOOP:  cpu time   15.6777: real time   15.7257

 eigenvalue-minimisations  : 13627
 total energy-change (2. order) :-0.2683253E-01  (-0.2084370E-01)
 number of electron     128.0000008 magnetization       8.5087626
 augmentation part       67.7197104 magnetization       6.4842300

 Broyden mixing:
  rms(total) = 0.23779E+00    rms(broyden)= 0.23778E+00
  rms(prec ) = 0.24599E+00
  weight for this iteration     100.00

 eigenvalues of (default mixing * dielectric matrix)
  average eigenvalue GAMMA=   0.6907
  2.0394  0.8533  0.8533  0.5912  0.5912  0.1384  0.2024  0.2565

 Free energy of the ion-electron system (eV)
  ---------------------------------------------------
  alpha Z        PSCENC =       530.39605273
  Ewald energy   TEWEN  =     -9181.39068822
  -Hartree energ DENC   =     -3039.98361096
  -exchange      EXHF   =         0.00000000
  -V(xc)+E(xc)   XCENC  =        74.80415503
  PAW double counting   =     12727.32426948   -13070.14767653
  entropy T*S    EENTRO =        -0.00281849
  eigenvalues    EBANDS =       626.28588630
  atomic energy  EATOM  =     11229.46195210
  Solvation  Ediel_sol  =         0.00000000
  ---------------------------------------------------
  free energy    TOTEN  =      -103.25247857 eV

  energy without entropy =     -103.24966008  energy(sigma->0) =     -103.25106933


--------------------------------------------------------------------------------------------------------




--------------------------------------- Iteration      1(  14)  ---------------------------------------


    POTLOK:  cpu time    0.1036: real time    0.1044
    SETDIJ:  cpu time    0.0384: real time    0.0384
    EDDIAG:  cpu time    3.4301: real time    3.4353
  RMM-DIIS:  cpu time   12.2161: real time   12.2314
    ORTHCH:  cpu time    0.6479: real time    0.6488
       DOS:  cpu time    0.0037: real time    0.0038
    CHARGE:  cpu time    0.6939: real time    0.6945
    MIXING:  cpu time    0.0025: real time    0.0025
    --------------------------------------------
      LOOP:  cpu time   17.1362: real time   17.1591

 eigenvalue-minimisations  : 15230
 total energy-change (2. order) :-0.3088160E-01  (-0.4939841E-02)
 number of electron     128.0000009 magnetization       8.8008094
 augmentation part       67.6775719 magnetization       6.7214215

 Broyden mixing:
  rms(total) = 0.97684E-01    rms(broyden)= 0.97677E-01
  rms(prec ) = 0.11043E+00
  weight for this iteration     100.00

 eigenvalues of (default mixing * dielectric matrix)
  average eigenvalue GAMMA=   0.7762
  2.2877  1.1236  1.1236  0.6693  0.6693  0.5156  0.1384  0.2036  0.2551

 Free energy of the ion-electron system (eV)
  ---------------------------------------------------
  alpha Z        PSCENC =       530.39605273
  Ewald energy   TEWEN  =     -9181.39068822
  -Hartree energ DENC   =     -3039.82317975
  -exchange      EXHF   =         0.00000000
  -V(xc)+E(xc)   XCENC  =        75.16370860
  PAW double counting   =     12808.94329401   -13153.19276710
  entropy T*S    EENTRO =        -0.00265016
  eigenvalues    EBANDS =       627.16091763
  atomic energy  EATOM  =     11229.46195210
  Solvation  Ediel_sol  =         0.00000000
  ---------------------------------------------------
  free energy    TOTEN  =      -103.28336017 eV

  energy without entropy =     -103.28071001  energy(sigma->0) =     -103.28203509


--------------------------------------------------------------------------------------------------------




--------------------------------------- Iteration      1(  15)  ---------------------------------------


    POTLOK:  cpu time    0.1006: real time    0.1009
    SETDIJ:  cpu time    0.0384: real time    0.0384
    EDDIAG:  cpu time    3.3990: real time    3.4028
  RMM-DIIS:  cpu time   11.4215: real time   11.4350
    ORTHCH:  cpu time    0.6413: real time    0.6421
       DOS:  cpu time    0.0038: real time    0.0038
    CHARGE:  cpu time    0.6953: real time    0.6961
    MIXING:  cpu time    0.0026: real time    0.0026
    --------------------------------------------
      LOOP:  cpu time   16.3025: real time   16.3217

 eigenvalue-minimisations  : 14404
 total energy-change (2. order) :-0.7762247E-02  (-0.1993143E-02)
 number of electron     128.0000009 magnetization       8.8056115
 augmentation part       67.6874422 magnetization       6.7327909

 Broyden mixing:
  rms(total) = 0.59746E-01    rms(broyden)= 0.59745E-01
  rms(prec ) = 0.82837E-01
  weight for this iteration     100.00

 eigenvalues of (default mixing * dielectric matrix)
  average eigenvalue GAMMA=   0.7759
  2.3236  1.2210  1.2210  0.6964  0.6964  0.5014  0.5014  0.1384  0.2036  0.2561

 Free energy of the ion-electron system (eV)
  ---------------------------------------------------
  alpha Z        PSCENC =       530.39605273
  Ewald energy   TEWEN  =     -9181.39068822
  -Hartree energ DENC   =     -3039.22531491
  -exchange      EXHF   =         0.00000000
  -V(xc)+E(xc)   XCENC  =        75.25528399
  PAW double counting   =     12850.31836513   -13194.95879778
  entropy T*S    EENTRO =        -0.00257723
  eigenvalues    EBANDS =       626.85460177
  atomic energy  EATOM  =     11229.46195210
  Solvation  Ediel_sol  =         0.00000000
  ---------------------------------------------------
  free energy    TOTEN  =      -103.29112242 eV

  energy without entropy =     -103.28854518  energy(sigma->0) =     -103.28983380


--------------------------------------------------------------------------------------------------------




--------------------------------------- Iteration      1(  16)  ---------------------------------------


    POTLOK:  cpu time    0.0986: real time    0.0987
    SETDIJ:  cpu time    0.0368: real time    0.0368
    EDDIAG:  cpu time    3.4151: real time    3.4193
  RMM-DIIS:  cpu time   10.8377: real time   10.8506
    ORTHCH:  cpu time    0.6438: real time    0.6444
       DOS:  cpu time    0.0038: real time    0.0038
    CHARGE:  cpu time    0.6978: real time    0.6985
    MIXING:  cpu time    0.0027: real time    0.0027
    --------------------------------------------
      LOOP:  cpu time   15.7362: real time   15.7548

 eigenvalue-minimisations  : 13735
 total energy-change (2. order) : 0.4820479E-03  (-0.5903375E-03)
 number of electron     128.0000009 magnetization       8.8204823
 augmentation part       67.7071949 magnetization       6.7105391

 Broyden mixing:
  rms(total) = 0.40427E-01    rms(broyden)= 0.40426E-01
  rms(prec ) = 0.54507E-01
  weight for this iteration     100.00

 eigenvalues of (default mixing * dielectric matrix)
  average eigenvalue GAMMA=   0.7875
  2.2631  1.8108  0.9848  0.7249  0.7249  0.7017  0.5369  0.1384  0.2036  0.2556
  0.3172

 Free energy of the ion-electron system (eV)
  ---------------------------------------------------
  alpha Z        PSCENC =       530.39605273
  Ewald energy   TEWEN  =     -9181.39068822
  -Hartree energ DENC   =     -3038.88453689
  -exchange      EXHF   =         0.00000000
  -V(xc)+E(xc)   XCENC  =        75.24889317
  PAW double counting   =     12852.17618493   -13196.69164409
  entropy T*S    EENTRO =        -0.00251631
  eigenvalues    EBANDS =       626.39566222
  atomic energy  EATOM  =     11229.46195210
  Solvation  Ediel_sol  =         0.00000000
  ---------------------------------------------------
  free energy    TOTEN  =      -103.29064037 eV

  energy without entropy =     -103.28812407  energy(sigma->0) =     -103.28938222


--------------------------------------------------------------------------------------------------------




--------------------------------------- Iteration      1(  17)  ---------------------------------------


    POTLOK:  cpu time    0.0990: real time    0.0991
    SETDIJ:  cpu time    0.0383: real time    0.0383
    EDDIAG:  cpu time    3.4271: real time    3.4313
  RMM-DIIS:  cpu time   11.6664: real time   11.6813
    ORTHCH:  cpu time    0.6385: real time    0.6401
       DOS:  cpu time    0.0038: real time    0.0038
    CHARGE:  cpu time    0.7002: real time    0.7009
    MIXING:  cpu time    0.0030: real time    0.0030
    --------------------------------------------
      LOOP:  cpu time   16.5762: real time   16.5979

 eigenvalue-minimisations  : 14382
 total energy-change (2. order) : 0.2546332E-03  (-0.1064531E-03)
 number of electron     128.0000009 magnetization       8.8263540
 augmentation part       67.7114267 magnetization       6.7288664

 Broyden mixing:
  rms(total) = 0.21149E-01    rms(broyden)= 0.21148E-01
  rms(prec ) = 0.33201E-01
  weight for this iteration     100.00

 eigenvalues of (default mixing * dielectric matrix)
  average eigenvalue GAMMA=   0.8558
  2.2415  2.2415  1.1009  1.1009  0.7497  0.7497  0.6340  0.5465  0.1384  0.2036
  0.2556  0.3076

 Free energy of the ion-electron system (eV)
  ---------------------------------------------------
  alpha Z        PSCENC =       530.39605273
  Ewald energy   TEWEN  =     -9181.39068822
  -Hartree energ DENC   =     -3038.85331397
  -exchange      EXHF   =         0.00000000
  -V(xc)+E(xc)   XCENC  =        75.26325521
  PAW double counting   =     12852.77660780   -13197.20171914
  entropy T*S    EENTRO =        -0.00254699
  eigenvalues    EBANDS =       626.26001474
  atomic energy  EATOM  =     11229.46195210
  Solvation  Ediel_sol  =         0.00000000
  ---------------------------------------------------
  free energy    TOTEN  =      -103.29038574 eV

  energy without entropy =     -103.28783875  energy(sigma->0) =     -103.28911224


--------------------------------------------------------------------------------------------------------




--------------------------------------- Iteration      1(  18)  ---------------------------------------


    POTLOK:  cpu time    0.0995: real time    0.1001
    SETDIJ:  cpu time    0.0365: real time    0.0366
    EDDIAG:  cpu time    3.4322: real time    3.4359
  RMM-DIIS:  cpu time   11.8005: real time   11.8172
    ORTHCH:  cpu time    0.6390: real time    0.6397
       DOS:  cpu time    0.0035: real time    0.0037
    CHARGE:  cpu time    0.7025: real time    0.7036
    MIXING:  cpu time    0.0032: real time    0.0032
    --------------------------------------------
      LOOP:  cpu time   16.7170: real time   16.7400

 eigenvalue-minimisations  : 14774
 total energy-change (2. order) : 0.1272449E-03  (-0.4525492E-04)
 number of electron     128.0000009 magnetization       8.8296387
 augmentation part       67.7110245 magnetization       6.7295110

 Broyden mixing:
  rms(total) = 0.80469E-02    rms(broyden)= 0.80465E-02
  rms(prec ) = 0.13650E-01
  weight for this iteration     100.00

 eigenvalues of (default mixing * dielectric matrix)
  average eigenvalue GAMMA=   0.8884
  2.4371  2.4371  1.1984  1.1984  0.7628  0.7628  0.6533  0.6533  0.5400  0.1384
  0.2036  0.2557  0.3084

 Free energy of the ion-electron system (eV)
  ---------------------------------------------------
  alpha Z        PSCENC =       530.39605273
  Ewald energy   TEWEN  =     -9181.39068822
  -Hartree energ DENC   =     -3038.91013176
  -exchange      EXHF   =         0.00000000
  -V(xc)+E(xc)   XCENC  =        75.30675179
[...]
         0         1         2         3         4         5         6         7         8         9
 total charge-density along one line

 pseudopotential strength for first ion, spin component:           1
 -1.742  -0.002   0.010  -0.009   0.000  -2.373  -0.002   0.009
 -0.002  -1.740  -0.018  -0.002   0.031  -0.002  -2.370  -0.017
  0.010  -0.018  -1.790  -0.005   0.002   0.009  -0.017  -2.419
 -0.009  -0.002  -0.005  -1.742  -0.008  -0.008  -0.002  -0.005
  0.000   0.031   0.002  -0.008  -1.792   0.000   0.030   0.002
 -2.373  -0.002   0.009  -0.008   0.000  -2.934  -0.002   0.009
 -0.002  -2.370  -0.017  -0.002   0.030  -0.002  -2.932  -0.016
  0.009  -0.017  -2.419  -0.005   0.002   0.009  -0.016  -2.978
 -0.008  -0.002  -0.005  -2.373  -0.008  -0.008  -0.002  -0.005
  0.000   0.030   0.002  -0.008  -2.421   0.000   0.029   0.001
  0.001   0.005  -0.000   0.001   0.001   0.001   0.005  -0.000
  0.002   0.009  -0.001   0.002   0.002   0.002   0.009  -0.001
  0.003  -0.005   0.005  -0.002   0.008   0.003  -0.005   0.005
 -0.002  -0.005  -0.010   0.003   0.000  -0.002  -0.005  -0.009
 -0.005  -0.002  -0.000  -0.005   0.000  -0.005  -0.002  -0.000
  0.005  -0.005   0.005  -0.003   0.008   0.004  -0.004   0.004
 -0.003  -0.005  -0.009   0.005   0.000  -0.003  -0.004  -0.009
 -0.004  -0.003  -0.000  -0.004   0.000  -0.004  -0.003  -0.000
 pseudopotential strength for first ion, spin component:           2
 -1.543  -0.004   0.006  -0.019   0.001  -2.184  -0.004   0.006
 -0.004  -1.543   0.004  -0.004  -0.007  -0.004  -2.184   0.004
  0.006   0.004  -1.481  -0.004  -0.005   0.006   0.004  -2.124
 -0.019  -0.004  -0.004  -1.543  -0.005  -0.019  -0.004  -0.004
  0.001  -0.007  -0.005  -0.005  -1.475   0.001  -0.007  -0.005
 -2.184  -0.004   0.006  -0.019   0.001  -2.755  -0.004   0.006
 -0.004  -2.184   0.004  -0.004  -0.007  -0.004  -2.754   0.004
  0.006   0.004  -2.124  -0.004  -0.005   0.006   0.004  -2.697
 -0.019  -0.004  -0.004  -2.184  -0.005  -0.018  -0.004  -0.003
  0.001  -0.007  -0.005  -0.005  -2.118   0.001  -0.006  -0.005
  0.001  -0.002   0.000   0.001  -0.001   0.001  -0.002   0.000
  0.002  -0.005   0.001   0.002  -0.001   0.002  -0.004   0.001
 -0.004  -0.009   0.006   0.002   0.010  -0.004  -0.009   0.006
  0.002  -0.009  -0.012  -0.004  -0.000   0.002  -0.009  -0.011
 -0.010   0.002   0.001  -0.010  -0.001  -0.009   0.002   0.001
 -0.006  -0.010   0.006   0.003   0.011  -0.005  -0.010   0.006
  0.003  -0.010  -0.013  -0.006  -0.000   0.003  -0.010  -0.012
 -0.011   0.003   0.001  -0.011  -0.002  -0.010   0.003   0.001
 total augmentation occupancy for first ion, spin component:           1
  2.049   0.031   0.043   0.059   0.009  -0.554  -0.018  -0.024  -0.069  -0.005   0.002  -0.001  -0.006   0.002   0.027   0.000
  0.031   2.121  -0.011   0.031   0.020  -0.018  -0.601   0.003  -0.018  -0.005  -0.096   0.029   0.028   0.028  -0.002  -0.012
  0.043  -0.011   2.724  -0.030  -0.046  -0.024   0.003  -1.043   0.017   0.030  -0.007   0.002   0.032  -0.072   0.009   0.002
  0.059   0.031  -0.030   2.049  -0.033  -0.069  -0.018   0.016  -0.554   0.018   0.002  -0.001   0.002  -0.006   0.027   0.000
  0.009   0.020  -0.046  -0.033   2.778  -0.005  -0.005   0.030   0.018  -1.077   0.013  -0.004   0.065   0.005  -0.016   0.005
 -0.554  -0.018  -0.024  -0.069  -0.005   0.848   0.010   0.014   0.077   0.003  -0.001   0.001   0.008  -0.002   0.001  -0.000
 -0.018  -0.601   0.003  -0.018  -0.005   0.010   0.876   0.005   0.010  -0.009   0.062  -0.017   0.002   0.002   0.001   0.001
 -0.024   0.003  -1.043   0.016   0.030   0.014   0.005   1.108  -0.010  -0.016   0.008  -0.002  -0.031   0.067  -0.008   0.004
 -0.069  -0.018   0.017  -0.554   0.018   0.077   0.010  -0.010   0.848  -0.010  -0.001   0.001  -0.002   0.008   0.001  -0.000
 -0.005  -0.005   0.030   0.018  -1.077   0.003  -0.009  -0.016  -0.010   1.126  -0.013   0.003  -0.059  -0.003   0.014   0.006
  0.002  -0.096  -0.007   0.002   0.013  -0.001   0.062   0.008  -0.001  -0.013   2.120  -0.277   0.054   0.054   0.007  -0.006
 -0.001   0.029   0.002  -0.001  -0.004   0.001  -0.017  -0.002   0.001   0.003  -0.277   0.046   0.001   0.001  -0.001  -0.000
 -0.006   0.028   0.032   0.002   0.065   0.008   0.002  -0.031  -0.002  -0.059   0.054   0.001   0.257  -0.000  -0.000  -0.027
  0.002   0.028  -0.072  -0.006   0.005  -0.002   0.002   0.067   0.008  -0.003   0.054   0.001  -0.000   0.257  -0.000  -0.002
  0.027  -0.002   0.009   0.027  -0.016   0.001   0.001  -0.008   0.001   0.014   0.007  -0.001  -0.000  -0.000   0.257   0.000
  0.000  -0.012   0.002   0.000   0.005  -0.000   0.001   0.004  -0.000   0.006  -0.006  -0.000  -0.027  -0.002   0.000   0.003
  0.000  -0.012  -0.005   0.000   0.000  -0.000   0.001  -0.007  -0.000  -0.000  -0.006  -0.000  -0.002  -0.027   0.000   0.000
 -0.011   0.001  -0.000  -0.011   0.001   0.001  -0.000   0.001   0.001  -0.001  -0.001   0.000   0.000   0.000  -0.026  -0.000
 total augmentation occupancy for first ion, spin component:           2
  0.351   0.033   0.045   0.087   0.045  -0.219  -0.032  -0.044  -0.092  -0.038   0.010   0.001  -0.073   0.087  -0.045   0.003
  0.033   0.319   0.091   0.033  -0.157  -0.032  -0.195  -0.046  -0.032   0.080  -0.066   0.002  -0.038  -0.038   0.087   0.001
  0.045   0.091   0.597  -0.062  -0.031  -0.042  -0.047  -0.293   0.054   0.018   0.006   0.001  -0.003   0.012  -0.018   0.000
  0.087   0.033  -0.062   0.351  -0.016  -0.092  -0.032   0.055  -0.219   0.019   0.010   0.001   0.087  -0.073  -0.045  -0.003
  0.045  -0.157  -0.031  -0.016   0.633  -0.038   0.081   0.018   0.017  -0.314  -0.011  -0.002  -0.012  -0.004   0.031   0.002
 -0.219  -0.032  -0.042  -0.092  -0.038   0.112   0.029   0.037   0.087   0.031  -0.006   0.001   0.046  -0.062   0.030  -0.005
 -0.032  -0.195  -0.047  -0.032   0.081   0.029   0.093   0.018   0.029  -0.031   0.047  -0.008   0.024   0.024  -0.062  -0.002
 -0.044  -0.046  -0.293   0.055   0.018   0.037   0.018   0.096  -0.045  -0.010  -0.005  -0.000   0.005  -0.016   0.018  -0.000
 -0.092  -0.032   0.054  -0.219   0.017   0.087   0.029  -0.045   0.112  -0.017  -0.006   0.001  -0.062   0.046   0.030   0.005
 -0.038   0.080   0.018   0.019  -0.314   0.031  -0.031  -0.010  -0.017   0.108   0.008   0.000   0.015   0.003  -0.030  -0.002
  0.010  -0.066   0.006   0.010  -0.011  -0.006   0.047  -0.005  -0.006   0.008  -0.047   0.011  -0.001  -0.001  -0.009  -0.001
  0.001   0.002   0.001   0.001  -0.002   0.001  -0.008  -0.000   0.001   0.000   0.011  -0.002  -0.002  -0.002  -0.004   0.000
 -0.073  -0.038  -0.003   0.087  -0.012   0.046   0.024   0.005  -0.062   0.015  -0.001  -0.002  -0.004   0.010  -0.000   0.000
  0.087  -0.038   0.012  -0.073  -0.004  -0.062   0.024  -0.016   0.046   0.003  -0.001  -0.002   0.010  -0.004  -0.000  -0.001
 -0.045   0.087  -0.018  -0.045   0.031   0.030  -0.062   0.018   0.030  -0.030  -0.009  -0.004  -0.000  -0.000   0.000   0.000
  0.003   0.001   0.000  -0.003   0.002  -0.005  -0.002  -0.000   0.005  -0.002  -0.001   0.000   0.000  -0.001   0.000   0.000
 -0.003   0.001  -0.002   0.003   0.001   0.005  -0.002   0.001  -0.005  -0.001  -0.001   0.000  -0.001   0.000   0.000   0.000
  0.001  -0.003  -0.000   0.001   0.000  -0.003   0.005  -0.000  -0.003   0.001  -0.002   0.001   0.000   0.000   0.000  -0.000


------------------------ aborting loop because EDIFF is reached ----------------------------------------





 total charge     

# of ion       s       p       d       tot
------------------------------------------
    1        0.477   0.424   8.383   9.283
    2        0.475   0.423   8.367   9.266
    3        0.475   0.427   8.379   9.281
    4        0.475   0.425   8.367   9.267
    5        0.475   0.425   8.367   9.267
    6        0.475   0.427   8.379   9.281
    7        0.475   0.423   8.367   9.266
    8        0.477   0.424   8.383   9.283
    9        0.325   0.306   4.974   5.605
   10        0.321   0.308   4.907   5.536
   11        0.328   0.322   4.926   5.576
   12        0.333   0.319   4.920   5.571
   13        0.358   0.365   4.983   5.705
   14        0.354   0.362   4.955   5.672
   15        1.230   1.657   0.280   3.167
   16        1.236   1.680   0.289   3.205
--------------------------------------------------
tot          8.287   8.716  97.228 114.231



 magnetization (x)

# of ion       s       p       d       tot
------------------------------------------
    1       -0.008  -0.003   0.274   0.263
    2       -0.005  -0.007   0.281   0.269
    3       -0.005  -0.005   0.284   0.273
    4       -0.007  -0.003   0.276   0.267
    5       -0.007  -0.003   0.276   0.267
    6       -0.005  -0.005   0.284   0.273
    7       -0.005  -0.007   0.281   0.269
    8       -0.008  -0.003   0.274   0.263
    9        0.032   0.014   3.533   3.578
   10       -0.042  -0.035  -3.504  -3.582
   11       -0.043  -0.047  -3.553  -3.643
   12        0.035   0.012   3.548   3.595
   13        0.016   0.014   3.264   3.294
   14        0.030   0.032   3.253   3.316
   15        0.013   0.090  -0.010   0.094
   16       -0.022  -0.043   0.002  -0.063
--------------------------------------------------
tot         -0.032   0.003   8.762   8.733

    CHARGE:  cpu time    0.7044: real time    0.7052
    FORLOC:  cpu time    0.0072: real time    0.0072
    FORNL :  cpu time    5.1070: real time    5.1148
    STRESS:  cpu time   15.3026: real time   15.3247
    FORCOR:  cpu time    0.0997: real time    0.0997
    FORHAR:  cpu time    0.0158: real time    0.0158
    MIXING:  cpu time    0.0017: real time    0.0017
    OFIELD:  cpu time    0.0000: real time    0.0000

  FORCE on cell =-STRESS in cart. coord.  units (eV):
  Direction    XX          YY          ZZ          XY          YZ          ZX
  --------------------------------------------------------------------------------------
  Alpha Z   530.39605   530.39605   530.39605
  Ewald   -2808.52801 -3186.56379 -3186.56379     0.00000     0.00000    -0.00000
  Hartree  1253.28368   892.63909   892.63909    -0.00000    -0.00000    -0.00000
  E(xc)    -670.05297  -670.29762  -670.29762     0.00000     0.00000    -0.00000
  Local    -799.33446   -62.02022   -62.02022     0.00000     0.00000    -0.00000
  n-local  -148.46987  -149.06632  -146.64339     0.37959    -0.11387    -0.42965
  augment  1579.35710  1578.97034  1578.97034     0.00000     0.00000    -0.00000
  Kinetic  1062.30381  1054.61111  1070.95854     1.15375     0.69974     0.77774
  Fock        0.00000     0.00000     0.00000     0.00000     0.00000     0.00000
  -------------------------------------------------------------------------------------
  Total      -1.04466    -1.94618    -1.94618     0.00000     0.00000     0.00000
  in kB      -7.88929   -14.69763   -14.69763     0.00000     0.00000     0.00000
  external pressure =      -12.43 kB  Pullay stress =        0.00 kB


 VOLUME and BASIS-vectors are now :
 -----------------------------------------------------------------------------
  energy-cutoff  :      550.00
  volume of cell :      212.15
      direct lattice vectors                 reciprocal lattice vectors
     5.964156413  0.000000000  0.000000000     0.167668306  0.000000000  0.000000000
     0.000000000  5.964156413  0.000000000     0.000000000  0.167668306  0.000000000
     0.000000000  0.000000000  5.964156413     0.000000000  0.000000000  0.167668306

  length of vectors
     5.964156413  5.964156413  5.964156413     0.167668306  0.167668306  0.167668306


 FORCES acting on ions
    electron-ion (+dipol)            ewald-force                    non-local-force                 convergence-correction
 -----------------------------------------------------------------------------------------------
   0.143E+02 0.162E+03 0.162E+03   -.143E+02 -.160E+03 -.160E+03   0.973E-02 -.234E+01 -.234E+01   0.509E-02 -.537E-02 -.537E-02
   -.143E+02 0.162E+03 0.162E+03   0.143E+02 -.160E+03 -.160E+03   -.973E-02 -.234E+01 -.234E+01   -.509E-02 -.537E-02 -.537E-02
   0.143E+02 -.162E+03 0.162E+03   -.143E+02 0.160E+03 -.160E+03   0.973E-02 0.234E+01 -.234E+01   0.509E-02 0.537E-02 -.537E-02
   -.143E+02 -.162E+03 0.162E+03   0.143E+02 0.160E+03 -.160E+03   -.973E-02 0.234E+01 -.234E+01   -.509E-02 0.537E-02 -.537E-02
   0.143E+02 0.162E+03 -.162E+03   -.143E+02 -.160E+03 0.160E+03   0.973E-02 -.234E+01 0.234E+01   0.509E-02 -.537E-02 0.537E-02
   -.143E+02 0.162E+03 -.162E+03   0.143E+02 -.160E+03 0.160E+03   -.973E-02 -.234E+01 0.234E+01   -.509E-02 -.537E-02 0.537E-02
   0.143E+02 -.162E+03 -.162E+03   -.143E+02 0.160E+03 0.160E+03   0.973E-02 0.234E+01 0.234E+01   0.509E-02 0.537E-02 0.537E-02
   -.143E+02 -.162E+03 -.162E+03   0.143E+02 0.160E+03 0.160E+03   -.973E-02 0.234E+01 0.234E+01   -.509E-02 0.537E-02 0.537E-02
   0.200E-12 0.152E-11 0.127E-11   -.451E-13 -.154E-13 -.545E-13   0.000E+00 0.000E+00 0.000E+00   0.174E-12 0.396E-12 0.506E-12
   0.597E-14 0.220E-12 -.574E-13   0.846E-13 0.202E-13 -.262E-13   0.000E+00 0.000E+00 0.000E+00   -.164E-12 0.384E-12 0.492E-12
   0.116E-13 -.594E-13 0.196E-12   0.111E-12 -.604E-13 -.152E-13   0.000E+00 0.000E+00 0.000E+00   0.736E-13 0.517E-12 -.277E-12
   0.204E-12 -.543E-13 0.263E-11   -.519E-13 -.888E-13 0.416E-13   0.000E+00 0.000E+00 0.000E+00   -.966E-13 0.541E-12 -.307E-12
   0.195E-12 0.365E-12 0.115E-11   0.281E-13 -.972E-14 -.162E-13   0.000E+00 0.000E+00 0.000E+00   0.368E-11 -.101E-11 -.163E-12
   0.985E-15 0.217E-12 0.174E-12   0.229E-12 -.109E-12 -.589E-13   0.000E+00 0.000E+00 0.000E+00   -.361E-11 -.985E-12 -.144E-12
   0.413E-13 -.319E-13 -.175E-13   0.385E-13 0.710E-14 0.952E-15   0.000E+00 0.000E+00 0.000E+00   0.750E-12 -.195E-12 0.152E-12
   -.491E-13 0.159E-13 0.544E-12   -.134E-13 -.713E-14 -.618E-14   0.000E+00 0.000E+00 0.000E+00   -.751E-12 -.197E-12 0.157E-12
 -----------------------------------------------------------------------------------------------
   0.114E-10 -.639E-11 0.781E-10   0.660E-15 0.209E-13 0.359E-13   -.104E-16 -.178E-14 -.888E-15   -.401E-13 0.346E-11 -.165E-10


 POSITION                                       TOTAL-FORCE (eV/Angst)
 -----------------------------------------------------------------------------------
      1.50682      1.59055      1.59055         0.008632     -0.000452     -0.000452
      4.45734      1.59055      1.59055        -0.008632     -0.000452     -0.000452
      1.50682      4.37361      1.59055         0.008632      0.000452     -0.000452
      4.45734      4.37361      1.59055        -0.008632      0.000452     -0.000452
      1.50682      1.59055      4.37361         0.008632     -0.000452      0.000452
      4.45734      1.59055      4.37361        -0.008632     -0.000452      0.000452
      1.50682      4.37361      4.37361         0.008632      0.000452      0.000452
      4.45734      4.37361      4.37361        -0.008632      0.000452      0.000452
      2.98208      2.98208      0.00000         0.000000      0.000000      0.000000
     -0.00000      2.98208      0.00000         0.000000      0.000000      0.000000
     -0.00000      0.00000      2.98208         0.000000      0.000000      0.000000
      2.98208      0.00000      2.98208         0.000000      0.000000      0.000000
      2.98208      2.98208      2.98208         0.000000      0.000000      0.000000
     -0.00000      2.98208      2.98208         0.000000      0.000000      0.000000
     -0.00000      0.00000      0.00000         0.000000      0.000000      0.000000
      2.98208      0.00000      0.00000         0.000000      0.000000      0.000000
 -----------------------------------------------------------------------------------
    total drift:                                0.000000     -0.000000      0.000000


--------------------------------------------------------------------------------------------------------



  FREE ENERGIE OF THE ION-ELECTRON SYSTEM (eV)
  ---------------------------------------------------
  free  energy   TOTEN  =      -103.29029535 eV

  energy  without entropy=     -103.28778967  energy(sigma->0) =     -103.28904251

 d Force = 0.6052305E-04[ 0.458E-04, 0.752E-04]  d Energy = 0.6764526E-04-0.712E-05
 d Force = 0.2374011E+00[ 0.236E+00, 0.239E+00]  d Ewald  = 0.2374011E+00 0.227E-07


--------------------------------------------------------------------------------------------------------


    POTLOK:  cpu time    0.1350: real time    0.1351


--------------------------------------------------------------------------------------------------------


 Steepest descent step on ions:
 trial-energy change:   -0.000068  1 .order   -0.000061   -0.000075   -0.000046
  (g-gl).g = 0.752E-04      g.g   = 0.752E-04  gl.gl    = 0.000E+00
 g(Force)  = 0.752E-04   g(Stress)= 0.000E+00 ortho     = 0.000E+00
 gamma     =   0.00000
 trial     =   1.00000
 opt step  =   2.56203  (harmonic =   2.56203) maximal distance =0.00166849
 next E    =  -103.290324   (d E  =  -0.00010)


--------------------------------------------------------------------------------------------------------


  
 reached required accuracy - stopping structural energy minimisation
     LOOP+:  cpu time   90.0968: real time   90.2487
    4ORBIT:  cpu time    0.0000: real time    0.0000



 total charge     

# of ion       s       p       d       tot
------------------------------------------
    1        0.477   0.424   8.383   9.283
    2        0.475   0.423   8.367   9.266
    3        0.475   0.427   8.379   9.281
    4        0.475   0.425   8.367   9.267
    5        0.475   0.425   8.367   9.267
    6        0.475   0.427   8.379   9.281
    7        0.475   0.423   8.367   9.266
    8        0.477   0.424   8.383   9.283
    9        0.325   0.306   4.974   5.605
   10        0.321   0.308   4.907   5.536
   11        0.328   0.322   4.926   5.576
   12        0.333   0.319   4.920   5.571
   13        0.358   0.365   4.983   5.705
   14        0.354   0.362   4.955   5.672
   15        1.230   1.657   0.280   3.167
   16        1.236   1.680   0.289   3.205
--------------------------------------------------
tot          8.287   8.716  97.228 114.231



 magnetization (x)

# of ion       s       p       d       tot
------------------------------------------
    1       -0.008  -0.003   0.274   0.263
    2       -0.005  -0.007   0.281   0.269
    3       -0.005  -0.005   0.284   0.273
    4       -0.007  -0.003   0.276   0.267
    5       -0.007  -0.003   0.276   0.267
    6       -0.005  -0.005   0.284   0.273
    7       -0.005  -0.007   0.281   0.269
    8       -0.008  -0.003   0.274   0.263
    9        0.032   0.014   3.533   3.578
   10       -0.042  -0.035  -3.504  -3.582
   11       -0.043  -0.047  -3.553  -3.643
   12        0.035   0.012   3.548   3.595
   13        0.016   0.014   3.264   3.294
   14        0.030   0.032   3.253   3.316
   15        0.013   0.090  -0.010   0.094
   16       -0.022  -0.043   0.002  -0.063
--------------------------------------------------
tot         -0.032   0.003   8.762   8.733


 total amount of memory used by VASP MPI-rank0   103638. kBytes
=======================================================================

   base      :      30000. kBytes
   nonlr-proj:       6809. kBytes
   fftplans  :       1269. kBytes
   grid      :       6573. kBytes
   one-center:        497. kBytes
   wavefun   :      58490. kBytes

  
  
 General timing and accounting informations for this job:
 ========================================================
  
                  Total CPU time used (sec):      496.923
                            User time (sec):      471.790
                          System time (sec):       25.133
                         Elapsed time (sec):      500.110
  
                   Maximum memory used (kb):      138212.
                   Average memory used (kb):           0.
  
                          Minor page faults:      9260381
                          Major page faults:           20
                 Voluntary context switches:         2140
