 vasp.5.4.4.18Apr17-6-g9f103f2a35 (build May 21 2018 20:56:50) complex           
 executed on             LinuxGNU date 2021.10.15  15:42:05
 running on   12 total cores
 distrk:  each k-point on   12 cores,    1 groups
 distr:  one band on NCORES_PER_BAND=   1 cores,   12 groups


--------------------------------------------------------------------------------------------------------


 INCAR:
 POTCAR:    PAW_PBE Ni 02Aug2007                  
 POTCAR:    PAW_PBE Mn 06Sep2000                  
 POTCAR:    PAW_PBE In 08Apr2002                  

 ----------------------------------------------------------------------------- 
|                                                                             |
|           W    W    AA    RRRRR   N    N  II  N    N   GGGG   !!!           |
|           W    W   A  A   R    R  NN   N  II  NN   N  G    G  !!!           |
|           W    W  A    A  R    R  N N  N  II  N N  N  G       !!!           |
|           W WW W  AAAAAA  RRRRR   N  N N  II  N  N N  G  GGG   !            |
|           WW  WW  A    A  R   R   N   NN  II  N   NN  G    G                |
|           W    W  A    A  R    R  N    N  II  N    N   GGGG   !!!           |
|                                                                             |
|      For optimal performance we recommend to set                            |
|        NCORE= 4 - approx SQRT( number of cores)                             |
|      NCORE specifies how many cores store one orbital (NPAR=cpu/NCORE).     |
|      This setting can  greatly improve the performance of VASP for DFT.     |
|      The default,   NCORE=1            might be grossly inefficient         |
|      on modern multi-core architectures or massively parallel machines.     |
|      Do your own testing !!!!                                               |
|      Unfortunately you need to use the default for GW and RPA calculations. |
|      (for HF NCORE is supported but not extensively tested yet)             |
|                                                                             |
 ----------------------------------------------------------------------------- 

 POTCAR:    PAW_PBE Ni 02Aug2007                  
   VRHFIN =Ni:                                                                  
   LEXCH  = PE                                                                  
   EATOM  =  1077.6739 eV,   79.2068 Ry                                         
                                                                                
   TITEL  = PAW_PBE Ni 02Aug2007                                                
   LULTRA =        F    use ultrasoft PP ?                                      
   IUNSCR =        1    unscreen: 0-lin 1-nonlin 2-no                           
   RPACOR =    2.000    partial core radius                                     
   POMASS =   58.690; ZVAL   =   10.000    mass and valenz                      
   RCORE  =    2.300    outmost cutoff radius                                   
   RWIGS  =    2.430; RWIGS  =    1.286    wigner-seitz radius (au A)           
   ENMAX  =  269.532; ENMIN  =  202.149 eV                                      
   RCLOC  =    1.201    cutoff for local pot                                    
   LCOR   =        T    correct aug charges                                     
   LPAW   =        T    paw PP                                                  
   EAUG   =  544.565                                                            
   DEXC   =    0.000                                                            
   RMAX   =    2.357    core radius for proj-oper                               
   RAUG   =    1.300    factor for augmentation sphere                          
   RDEP   =    2.390    radius for radial grids                                 
   RDEPT  =    1.838    core radius for aug-charge                              
                                                                                
   Atomic configuration                                                         
    9 entries                                                                   
     n  l   j            E        occ.                                          
     1  0  0.50     -8206.4253   2.0000                                         
     2  0  0.50      -976.1748   2.0000                                         
     2  1  1.50      -839.0571   6.0000                                         
     3  0  0.50      -105.9991   2.0000                                         
     3  1  1.50       -66.4603   6.0000                                         
     3  2  2.50        -4.6458   9.0000                                         
     4  0  0.50        -4.4926   1.0000                                         
     4  1  1.50        -4.0817   0.0000                                         
     4  3  2.50        -1.3606   0.0000                                         
   Description                                                                  
     l       E           TYP  RCUT    TYP  RCUT                                 
     2     -4.6457903     23  2.300                                             
     2     -6.0063729     23  2.300                                             
     0     -4.4925590     23  2.300                                             
     0      5.0102601     23  2.300                                             
     1     -2.7211652     23  2.300                                             
     1     16.5183231     23  2.300                                             
  local pseudopotential read in
  partial core-charges read in
  partial kinetic energy density read in
  atomic valenz-charges read in
  non local Contribution for L=           2  read in
    real space projection operators read in
  non local Contribution for L=           2  read in
    real space projection operators read in
  non local Contribution for L=           0  read in
    real space projection operators read in
  non local Contribution for L=           0  read in
    real space projection operators read in
  non local Contribution for L=           1  read in
    real space projection operators read in
  non local Contribution for L=           1  read in
    real space projection operators read in
    PAW grid and wavefunctions read in

   number of l-projection  operators is LMAX  =           6
   number of lm-projection operators is LMMAX =          18

 POTCAR:    PAW_PBE Mn 06Sep2000                  
   VRHFIN =Mn: d6 s1                                                            
   LEXCH  = PE                                                                  
   EATOM  =   416.7541 eV,   30.6306 Ry                                         
                                                                                
   TITEL  = PAW_PBE Mn 06Sep2000                                                
   LULTRA =        F    use ultrasoft PP ?                                      
   IUNSCR =        1    unscreen: 0-lin 1-nonlin 2-no                           
   RPACOR =    2.000    partial core radius                                     
   POMASS =   54.938; ZVAL   =    7.000    mass and valenz                      
   RCORE  =    2.300    outmost cutoff radius                                   
   RWIGS  =    2.500; RWIGS  =    1.323    wigner-seitz radius (au A)           
   ENMAX  =  269.864; ENMIN  =  202.398 eV                                      
   RCLOC  =    1.725    cutoff for local pot                                    
   LCOR   =        T    correct aug charges                                     
   LPAW   =        T    paw PP                                                  
   EAUG   =  500.711                                                            
   DEXC   =    0.000                                                            
   RMAX   =    2.343    core radius for proj-oper                               
   RAUG   =    1.300    factor for augmentation sphere                          
   RDEP   =    2.338    radius for radial grids                                 
   RDEPT  =    1.911    core radius for aug-charge                              
                                                                                
   Atomic configuration                                                         
    9 entries                                                                   
     n  l   j            E        occ.                                          
     1  0  0.50     -6424.8288   2.0000                                         
     2  0  0.50      -739.1154   2.0000                                         
     2  1  1.50      -625.3949   6.0000                                         
     3  0  0.50       -81.6100   2.0000                                         
     3  1  1.50       -50.4667   6.0000                                         
     3  2  2.50        -3.3745   6.0000                                         
     4  0  0.50        -4.1331   1.0000                                         
     4  1  0.50        -4.0817   0.0000                                         
     4  3  2.50        -1.3606   0.0000                                         
   Description                                                                  
     l       E           TYP  RCUT    TYP  RCUT                                 
     2     -3.3744664     23  2.300                                             
     2     -4.7350490     23  2.300                                             
     0     -4.1331408     23  2.300                                             
     0      7.6656614     23  2.300                                             
     1     -2.7211652     23  2.300                                             
     1     20.4087390     23  2.300                                             
  local pseudopotential read in
  partial core-charges read in
  partial kinetic energy density read in
  atomic valenz-charges read in
  non local Contribution for L=           2  read in
    real space projection operators read in
  non local Contribution for L=           2  read in
    real space projection operators read in
  non local Contribution for L=           0  read in
    real space projection operators read in
  non local Contribution for L=           0  read in
    real space projection operators read in
  non local Contribution for L=           1  read in
    real space projection operators read in
  non local Contribution for L=           1  read in
    real space projection operators read in
    PAW grid and wavefunctions read in

   number of l-projection  operators is LMAX  =           6
   number of lm-projection operators is LMMAX =          18

 POTCAR:    PAW_PBE In 08Apr2002                  
   VRHFIN =In: s2p1                                                             
   LEXCH  = PE                                                                  
   EATOM  =    53.7908 eV,    3.9535 Ry                                         
                                                                                
   TITEL  = PAW_PBE In 08Apr2002                                                
   LULTRA =        F    use ultrasoft PP ?                                      
   IUNSCR =        1    unscreen: 0-lin 1-nonlin 2-no                           
   RPACOR =    2.400    partial core radius                                     
   POMASS =  114.820; ZVAL   =    3.000    mass and valenz                      
   RCORE  =    3.100    outmost cutoff radius                                   
   RWIGS  =    3.170; RWIGS  =    1.677    wigner-seitz radius (au A)           
   ENMAX  =   95.934; ENMIN  =   71.951 eV                                      
   ICORE  =        3    local potential                                         
   LCOR   =        T    correct aug charges                                     
   LPAW   =        T    paw PP                                                  
   EAUG   =  237.125                                                            
   DEXC   =    0.000                                                            
   RMAX   =    3.168    core radius for proj-oper                               
   RAUG   =    1.300    factor for augmentation sphere                          
   RDEP   =    3.187    radius for radial grids                                 
   RDEPT  =    2.711    core radius for aug-charge                              
                                                                                
   Atomic configuration                                                         
   13 entries                                                                   
     n  l   j            E        occ.                                          
     1  0  0.50    -27747.9169   2.0000                                         
     2  0  0.50     -4154.4438   2.0000                                         
     2  1  1.50     -3728.4305   6.0000                                         
     3  0  0.50      -788.3680   2.0000                                         
     3  1  1.50      -648.9215   6.0000                                         
     3  2  2.50      -432.5893  10.0000                                         
     4  0  0.50      -119.6363   2.0000                                         
     4  1  1.50       -78.1086   6.0000                                         
     4  2  2.50       -18.6227  10.0000                                         
     5  0  0.50        -8.2107   2.0000                                         
     5  1  0.50        -2.5185   1.0000                                         
     5  2  2.50        -1.3606   0.0000                                         
     4  3  2.50        -2.7212   0.0000                                         
   Description                                                                  
     l       E           TYP  RCUT    TYP  RCUT                                 
     0     -8.2107306     23  3.100                                             
     0     -6.1485975     23  3.100                                             
     1     -2.5184867     23  3.100                                             
     1      3.2427302     23  3.100                                             
     2     -1.3605826     23  3.100                                             
     3     -1.3605826     23  3.100                                             
  local pseudopotential read in
  partial core-charges read in
  partial kinetic energy density read in
  atomic valenz-charges read in
  non local Contribution for L=           0  read in
    real space projection operators read in
  non local Contribution for L=           0  read in
    real space projection operators read in
  non local Contribution for L=           1  read in
    real space projection operators read in
  non local Contribution for L=           1  read in
    real space projection operators read in
  non local Contribution for L=           2  read in
    real space projection operators read in
    PAW grid and wavefunctions read in

   number of l-projection  operators is LMAX  =           5
   number of lm-projection operators is LMMAX =          13

 Optimization of the real space projectors (new method)

 maximal supplied QI-value         = 16.25
 optimisation between [QCUT,QGAM] = [ 11.86, 23.89] = [ 39.41,159.82] Ry 
 Optimized for a Real-space Cutoff    1.33 Angstroem

   l    n(q)    QCUT    max X(q) W(low)/X(q) W(high)/X(q)  e(spline) 
   2      9    11.864    60.317    0.21E-03    0.51E-03    0.25E-06
   2      9    11.864    55.921    0.21E-03    0.51E-03    0.26E-06
   0      9    11.864    51.690    0.22E-03    0.30E-04    0.17E-06
   0      9    11.864    30.015    0.20E-03    0.28E-04    0.15E-06
   1      9    11.864    18.849    0.76E-04    0.33E-03    0.17E-06
   1      9    11.864    14.624    0.60E-04    0.28E-03    0.15E-06
 Optimization of the real space projectors (new method)

 maximal supplied QI-value         = 16.25
 optimisation between [QCUT,QGAM] = [ 11.86, 23.89] = [ 39.41,159.82] Ry 
 Optimized for a Real-space Cutoff    1.36 Angstroem

   l    n(q)    QCUT    max X(q) W(low)/X(q) W(high)/X(q)  e(spline) 
   2      9    11.864   110.144    0.49E-03    0.50E-03    0.21E-06
   2      9    11.864   103.200    0.49E-03    0.51E-03    0.22E-06
   0     10    11.864    68.437    0.12E-03    0.41E-04    0.21E-06
   0     10    11.864    33.971    0.11E-03    0.36E-04    0.19E-06
   1      9    11.864    17.065    0.24E-03    0.26E-03    0.93E-07
   1      9    11.864    12.540    0.19E-03    0.20E-03    0.80E-07
 Optimization of the real space projectors (new method)

 maximal supplied QI-value         = 12.09
 optimisation between [QCUT,QGAM] = [ 11.97, 23.95] = [ 40.14,160.58] Ry 
 Optimized for a Real-space Cutoff    1.63 Angstroem

   l    n(q)    QCUT    max X(q) W(low)/X(q) W(high)/X(q)  e(spline) 
   0     12    11.973   106.980    0.33E-03    0.16E-03    0.25E-05
   0     12    11.973    81.086    0.37E-03    0.18E-03    0.28E-05
   1     11    11.973    53.097    0.22E-03    0.42E-03    0.40E-05
   1     11    11.973    32.621    0.20E-03    0.40E-03    0.37E-05
   2     11    11.973     8.820    0.30E-03    0.17E-03    0.41E-06
  PAW_PBE Ni 02Aug2007                  :
 energy of atom  1       EATOM=-1077.6739
 kinetic energy error for atom=    0.0027 (will be added to EATOM!!)
  PAW_PBE Mn 06Sep2000                  :
 energy of atom  2       EATOM= -416.7541
 kinetic energy error for atom=    0.0022 (will be added to EATOM!!)
  PAW_PBE In 08Apr2002                  :
 energy of atom  3       EATOM=  -53.7908
 kinetic energy error for atom=    0.0000 (will be added to EATOM!!)


 POSCAR: Ni2MnIn                                 
  positions in direct lattice
  velocities in cartesian coordinates
 exchange correlation table for  LEXCH =        8
   RHO(1)=    0.500       N(1)  =     2000
   RHO(2)=  100.500       N(2)  =     4000



--------------------------------------------------------------------------------------------------------


 ion  position               nearest neighbor table
   1  0.250  0.266  0.266-  13 2.47  14 2.47   9 2.59  10 2.59  11 2.59  12 2.59  15 2.69  16 2.69
                             3 2.79   5 2.79   2 2.98   2 2.98
   2  0.750  0.266  0.266-  13 2.47  14 2.47   9 2.59  10 2.59  11 2.59  12 2.59  15 2.69  16 2.69
                             4 2.79   6 2.79   1 2.98   1 2.98
   3  0.250  0.734  0.266-  13 2.47  14 2.47   9 2.59  10 2.59  11 2.59  12 2.59  15 2.69  16 2.69
                             1 2.79   7 2.79   4 2.98   4 2.98
   4  0.750  0.734  0.266-  13 2.47  14 2.47   9 2.59  10 2.59  11 2.59  12 2.59  15 2.69  16 2.69
                             2 2.79   8 2.79   3 2.98   3 2.98
   5  0.250  0.266  0.734-  13 2.47  14 2.47   9 2.59  10 2.59  11 2.59  12 2.59  15 2.69  16 2.69
                             1 2.79   7 2.79   6 2.98   6 2.98
   6  0.750  0.266  0.734-  13 2.47  14 2.47   9 2.59  10 2.59  11 2.59  12 2.59  15 2.69  16 2.69
                             2 2.79   8 2.79   5 2.98   5 2.98
   7  0.250  0.734  0.734-  13 2.47  14 2.47   9 2.59  10 2.59  11 2.59  12 2.59  15 2.69  16 2.69
                             3 2.79   5 2.79   8 2.98   8 2.98
   8  0.750  0.734  0.734-  13 2.47  14 2.47   9 2.59  10 2.59  11 2.59  12 2.59  15 2.69  16 2.69
                             4 2.79   6 2.79   7 2.98   7 2.98
   9  0.500  0.500  0.000-   1 2.59   2 2.59   3 2.59   4 2.59   5 2.59   6 2.59   7 2.59   8 2.59
                            10 2.98  13 2.98  16 2.98  13 2.98  16 2.98  10 2.98
  10  0.000  0.500  0.000-   1 2.59   2 2.59   3 2.59   4 2.59   5 2.59   6 2.59   7 2.59   8 2.59
                             9 2.98  14 2.98  15 2.98  14 2.98  15 2.98   9 2.98
  11  0.000  0.000  0.500-   1 2.59   2 2.59   3 2.59   4 2.59   5 2.59   6 2.59   7 2.59   8 2.59
                            12 2.98  14 2.98  15 2.98  15 2.98  14 2.98  12 2.98
  12  0.500  0.000  0.500-   1 2.59   2 2.59   3 2.59   4 2.59   5 2.59   6 2.59   7 2.59   8 2.59
                            11 2.98  13 2.98  16 2.98  16 2.98  13 2.98  11 2.98
  13  0.500  0.500  0.500-   1 2.47   2 2.47   3 2.47   4 2.47   5 2.47   6 2.47   7 2.47   8 2.47
                             9 2.98  12 2.98  14 2.98   9 2.98  12 2.98  14 2.98
  14  0.000  0.500  0.500-   1 2.47   2 2.47   3 2.47   4 2.47   5 2.47   6 2.47   7 2.47   8 2.47
                            10 2.98  11 2.98  13 2.98  10 2.98  11 2.98  13 2.98
  15  0.000  0.000  0.000-   1 2.69   2 2.69   3 2.69   4 2.69   5 2.69   6 2.69   7 2.69   8 2.69
                            10 2.98  11 2.98  16 2.98  11 2.98  10 2.98  16 2.98
  16  0.500  0.000  0.000-   1 2.69   2 2.69   3 2.69   4 2.69   5 2.69   6 2.69   7 2.69   8 2.69
                             9 2.98  12 2.98  15 2.98  12 2.98   9 2.98  15 2.98

  LATTYP: Found a simple cubic cell.
 ALAT       =     5.9640971889
  
  Lattice vectors:
  
 A1 = (   5.9640971889,   0.0000000000,   0.0000000000)
 A2 = (   0.0000000000,   5.9640971889,   0.0000000000)
 A3 = (   0.0000000000,   0.0000000000,   5.9640971889)


Analysis of symmetry for initial positions (statically):
=====================================================================
 Subroutine PRICEL returns following result:
 
  LATTYP: Found a simple tetragonal cell.
 ALAT       =     5.9640971889
 C/A-ratio  =     0.5000000000
  
  Lattice vectors:
  
 A1 = (   0.0000000000,   5.9640971889,   0.0000000000)
 A2 = (   0.0000000000,   0.0000000000,  -5.9640971889)
 A3 = (  -2.9820485945,   0.0000000000,   0.0000000000)
 
   2 primitive cells build up your supercell.
 

 Routine SETGRP: Setting up the symmetry group for a 
 simple cubic supercell.


 Subroutine GETGRP returns: Found 16 space group operations
 (whereof 16 operations were pure point group operations)
 out of a pool of 48 trial point group operations.


The static configuration has the point symmetry D_4h.


Analysis of symmetry for dynamics (positions and initial velocities):
=====================================================================
 Subroutine PRICEL returns following result:
 
  LATTYP: Found a simple tetragonal cell.
 ALAT       =     5.9640971889
 C/A-ratio  =     0.5000000000
  
  Lattice vectors:
  
 A1 = (   0.0000000000,   5.9640971889,   0.0000000000)
 A2 = (   0.0000000000,   0.0000000000,  -5.9640971889)
 A3 = (  -2.9820485945,   0.0000000000,   0.0000000000)
 
   2 primitive cells build up your supercell.
 

 Routine SETGRP: Setting up the symmetry group for a 
 simple cubic supercell.


 Subroutine GETGRP returns: Found 16 space group operations
 (whereof 16 operations were pure point group operations)
 out of a pool of 48 trial point group operations.


The dynamic configuration has the point symmetry D_4h.


Analysis of structural, dynamic, and magnetic symmetry:
=====================================================================
 Subroutine PRICEL returns:
 Original cell was already a primitive cell.
 

 Routine SETGRP: Setting up the symmetry group for a 
 simple cubic supercell.


 Subroutine GETGRP returns: Found 16 space group operations
 (whereof  8 operations were pure point group operations)
 out of a pool of 48 trial point group operations.


The magnetic configuration has the point symmetry D_2h.
 The point group associated with its full space group is D_4h.


 Subroutine INISYM returns: Found 16 space group operations
 (whereof  8 operations are pure point group operations),
 and found     1 'primitive' translations



 KPOINTS: k-points                                

Automatic generation of k-mesh.
Space group operators:
 irot       det(A)        alpha          n_x          n_y          n_z        tau_x        tau_y        tau_z
    1     1.000000     0.000001     1.000000     0.000000     0.000000     0.000000     0.000000     0.000000
    2    -1.000000     0.000001     1.000000     0.000000     0.000000     0.000000     0.000000     0.000000
    3     1.000000   180.000000     0.000000     0.000000     1.000000     0.000000     0.000000     0.000000
    4    -1.000000   180.000000     0.000000     0.000000     1.000000     0.000000     0.000000     0.000000
    5     1.000000   180.000000     1.000000     0.000000     0.000000     0.000000     0.000000     0.000000
    6    -1.000000   180.000000     1.000000     0.000000     0.000000     0.000000     0.000000     0.000000
    7     1.000000   180.000000     0.000000     1.000000     0.000000     0.000000     0.000000     0.000000
    8    -1.000000   180.000000     0.000000     1.000000     0.000000     0.000000     0.000000     0.000000
    9     1.000000   180.000000     0.000000     0.707107     0.707107     0.500000     0.000000     0.000000
   10    -1.000000   180.000000     0.000000     0.707107     0.707107     0.500000     0.000000     0.000000
   11     1.000000    90.000000    -1.000000     0.000000     0.000000     0.500000     0.000000     0.000000
   12    -1.000000    90.000000    -1.000000     0.000000     0.000000     0.500000     0.000000     0.000000
   13     1.000000    90.000000     1.000000     0.000000     0.000000     0.500000     0.000000     0.000000
   14    -1.000000    90.000000     1.000000     0.000000     0.000000     0.500000     0.000000     0.000000
   15     1.000000   180.000000     0.000000    -0.707107     0.707107     0.500000     0.000000     0.000000
   16    -1.000000   180.000000     0.000000    -0.707107     0.707107     0.500000     0.000000     0.000000
 
 Subroutine IBZKPT returns following result:
 ===========================================
 
 Found     40 irreducible k-points:
 
 Following reciprocal coordinates:
            Coordinates               Weight
  0.000000  0.000000  0.000000      1.000000
  0.142857  0.000000  0.000000      2.000000
  0.285714  0.000000  0.000000      2.000000
  0.428571  0.000000  0.000000      2.000000
  0.000000  0.142857  0.000000      4.000000
  0.142857  0.142857  0.000000      8.000000
  0.285714  0.142857  0.000000      8.000000
  0.428571  0.142857  0.000000      8.000000
  0.000000  0.285714  0.000000      4.000000
  0.142857  0.285714  0.000000      8.000000
  0.285714  0.285714  0.000000      8.000000
  0.428571  0.285714  0.000000      8.000000
  0.000000  0.428571  0.000000      4.000000
  0.142857  0.428571  0.000000      8.000000
  0.285714  0.428571  0.000000      8.000000
  0.428571  0.428571  0.000000      8.000000
  0.000000  0.142857  0.142857      4.000000
  0.142857  0.142857  0.142857      8.000000
  0.285714  0.142857  0.142857      8.000000
  0.428571  0.142857  0.142857      8.000000
  0.000000  0.285714  0.142857      8.000000
  0.142857  0.285714  0.142857     16.000000
  0.285714  0.285714  0.142857     16.000000
  0.428571  0.285714  0.142857     16.000000
  0.000000  0.428571  0.142857      8.000000
  0.142857  0.428571  0.142857     16.000000
  0.285714  0.428571  0.142857     16.000000
  0.428571  0.428571  0.142857     16.000000
  0.000000  0.285714  0.285714      4.000000
  0.142857  0.285714  0.285714      8.000000
  0.285714  0.285714  0.285714      8.000000
  0.428571  0.285714  0.285714      8.000000
  0.000000  0.428571  0.285714      8.000000
  0.142857  0.428571  0.285714     16.000000
  0.285714  0.428571  0.285714     16.000000
  0.428571  0.428571  0.285714     16.000000
  0.000000  0.428571  0.428571      4.000000
  0.142857  0.428571  0.428571      8.000000
  0.285714  0.428571  0.428571      8.000000
  0.428571  0.428571  0.428571      8.000000
 
 Following cartesian coordinates:
            Coordinates               Weight
  0.000000  0.000000  0.000000      1.000000
  0.137968  0.000000  0.000000      2.000000
  0.275937  0.000000  0.000000      2.000000
  0.413905  0.000000  0.000000      2.000000
  0.000000  0.137968  0.000000      4.000000
  0.137968  0.137968  0.000000      8.000000
  0.275937  0.137968  0.000000      8.000000
  0.413905  0.137968  0.000000      8.000000
  0.000000  0.275937  0.000000      4.000000
  0.137968  0.275937  0.000000      8.000000
  0.275937  0.275937  0.000000      8.000000
  0.413905  0.275937  0.000000      8.000000
  0.000000  0.413905  0.000000      4.000000
  0.137968  0.413905  0.000000      8.000000
  0.275937  0.413905  0.000000      8.000000
  0.413905  0.413905  0.000000      8.000000
  0.000000  0.137968  0.137968      4.000000
  0.137968  0.137968  0.137968      8.000000
  0.275937  0.137968  0.137968      8.000000
  0.413905  0.137968  0.137968      8.000000
  0.000000  0.275937  0.137968      8.000000
  0.137968  0.275937  0.137968     16.000000
  0.275937  0.275937  0.137968     16.000000
  0.413905  0.275937  0.137968     16.000000
  0.000000  0.413905  0.137968      8.000000
  0.137968  0.413905  0.137968     16.000000
  0.275937  0.413905  0.137968     16.000000
  0.413905  0.413905  0.137968     16.000000
  0.000000  0.275937  0.275937      4.000000
  0.137968  0.275937  0.275937      8.000000
  0.275937  0.275937  0.275937      8.000000
  0.413905  0.275937  0.275937      8.000000
  0.000000  0.413905  0.275937      8.000000
  0.137968  0.413905  0.275937     16.000000
  0.275937  0.413905  0.275937     16.000000
  0.413905  0.413905  0.275937     16.000000
  0.000000  0.413905  0.413905      4.000000
  0.137968  0.413905  0.413905      8.000000
  0.275937  0.413905  0.413905      8.000000
  0.413905  0.413905  0.413905      8.000000
 


--------------------------------------------------------------------------------------------------------




 Dimension of arrays:
   k-points           NKPTS =     40   k-points in BZ     NKDIM =     40   number of bands    NBANDS=     84
   number of dos      NEDOS =    301   number of ions     NIONS =     16
   non local maximal  LDIM  =      6   non local SUM 2l+1 LMDIM =     18
   total plane-waves  NPLWV =  46656
   max r-space proj   IRMAX =   4037   max aug-charges    IRDMAX=  25006
   dimension x,y,z NGX =    36 NGY =   36 NGZ =   36
   dimension x,y,z NGXF=    72 NGYF=   72 NGZF=   72
   support grid    NGXF=    72 NGYF=   72 NGZF=   72
   ions per type =               8   6   2
   NGX,Y,Z   is equivalent  to a cutoff of  10.03, 10.03, 10.03 a.u.
   NGXF,Y,Z  is equivalent  to a cutoff of  20.07, 20.07, 20.07 a.u.

 SYSTEM =  Testrun for NiMnIn                      
 POSCAR =  Ni2MnIn                                 

 Startparameter for this run:
   NWRITE =      2    write-flag & timer
   PREC   = normal    normal or accurate (medium, high low for compatibility)
   ISTART =      0    job   : 0-new  1-cont  2-samecut
   ICHARG =      2    charge: 1-file 2-atom 10-const
   ISPIN  =      2    spin polarized calculation?
   LNONCOLLINEAR =      F non collinear calculations
   LSORBIT =      F    spin-orbit coupling
   INIWAV =      1    electr: 0-lowe 1-rand  2-diag
   LASPH  =      F    aspherical Exc in radial PAW
   METAGGA=      F    non-selfconsistent MetaGGA calc.

 Electronic Relaxation 1
   ENCUT  =  550.0 eV  40.42 Ry    6.36 a.u.  11.40 11.40 11.40*2*pi/ulx,y,z
   ENINI  =  550.0     initial cutoff
   ENAUG  =  544.6 eV  augmentation charge cutoff
   NELM   =     60;   NELMIN=  2; NELMDL= -5     # of ELM steps 
   EDIFF  = 0.1E-04   stopping-criterion for ELM
   LREAL  =      T    real-space projection
   NLSPLINE    = F    spline interpolate recip. space projectors
   LCOMPAT=      F    compatible to vasp.4.4
   GGA_COMPAT  = T    GGA compatible to vasp.4.4-vasp.4.6
   LMAXPAW     = -100 max onsite density
   LMAXMIX     =    2 max onsite mixed and CHGCAR
   VOSKOWN=      0    Vosko Wilk Nusair interpolation
   ROPT   =   -0.00050  -0.00050  -0.00050
 Ionic relaxation
   EDIFFG = -.1E-01   stopping-criterion for IOM
   NSW    =   1000    number of steps for IOM
   NBLOCK =      1;   KBLOCK =   1000    inner block; outer block 
   IBRION =      2    ionic relax: 0-MD 1-quasi-New 2-CG
   NFREE  =      1    steps in history (QN), initial steepest desc. (CG)
   ISIF   =      2    stress and relaxation
   IWAVPR =     11    prediction:  0-non 1-charg 2-wave 3-comb
   ISYM   =      2    0-nonsym 1-usesym 2-fastsym
   LCORR  =      T    Harris-Foulkes like correction to forces

   POTIM  = 0.5000    time-step for ionic-motion
   TEIN   =    0.0    initial temperature
   TEBEG  =    0.0;   TEEND  =   0.0 temperature during run
   SMASS  =  -3.00    Nose mass-parameter (am)
   estimated Nose-frequenzy (Omega)   =  0.10E-29 period in steps =****** mass=  -0.813E-27a.u.
   SCALEE = 1.0000    scale energy and forces
   NPACO  =    256;   APACO  = 16.0  distance and # of slots for P.C.
   PSTRESS=    0.0 pullay stress

  Mass of Ions in am
   POMASS =  58.69 54.94114.82
  Ionic Valenz
   ZVAL   =  10.00  7.00  3.00
  Atomic Wigner-Seitz radii
   RWIGS  =  -1.00 -1.00 -1.00
  virtual crystal weights 
   VCA    =   1.00  1.00  1.00
   NELECT =     128.0000    total number of electrons
   NUPDOWN=      -1.0000    fix difference up-down

 DOS related values:
   EMIN   =  10.00;   EMAX   =-10.00  energy-range for DOS
   EFERMI =   0.00
   ISMEAR =     0;   SIGMA  =   0.02  broadening in eV -4-tet -1-fermi 0-gaus

 Electronic relaxation 2 (details)
   IALGO  =     68    algorithm
   LDIAG  =      T    sub-space diagonalisation (order eigenvalues)
   LSUBROT=      F    optimize rotation matrix (better conditioning)
   TURBO    =      0    0=normal 1=particle mesh
   IRESTART =      0    0=no restart 2=restart with 2 vectors
   NREBOOT  =      0    no. of reboots
   NMIN     =      0    reboot dimension
   EREF     =   0.00    reference energy to select bands
   IMIX   =      4    mixing-type and parameters
     AMIX     =   0.40;   BMIX     =  1.00
     AMIX_MAG =   1.60;   BMIX_MAG =  1.00
     AMIN     =   0.10
     WC   =   100.;   INIMIX=   1;  MIXPRE=   1;  MAXMIX= -45

 Intra band minimization:
   WEIMIN = 0.0010     energy-eigenvalue tresh-hold
   EBREAK =  0.30E-07  absolut break condition
   DEPER  =   0.30     relativ break condition  

   TIME   =   0.40     timestep for ELM

  volume/ion in A,a.u.               =      13.26        89.48
  Fermi-wavevector in a.u.,A,eV,Ry     =   1.383354  2.614161 26.037051  1.913669
  Thomas-Fermi vector in A             =   2.507960

 Write flags
   LWAVE        =      F    write WAVECAR
   LDOWNSAMPLE  =      F    k-point downsampling of WAVECAR
   LCHARG       =      T    write CHGCAR
   LVTOT        =      F    write LOCPOT, total local potential
   LVHAR        =      F    write LOCPOT, Hartree potential only
   LELF         =      F    write electronic localiz. function (ELF)
   LORBIT       =     11    0 simple, 1 ext, 2 COOP (PROOUT), +10 PAW based schemes


 Dipole corrections
   LMONO  =      F    monopole corrections only (constant potential shift)
   LDIPOL =      F    correct potential (dipole corrections)
   IDIPOL =      0    1-x, 2-y, 3-z, 4-all directions 
   EPSILON=  1.0000000 bulk dielectric constant

 Exchange correlation treatment:
   GGA     =    --    GGA type
   LEXCH   =     8    internal setting for exchange type
   VOSKOWN=      0    Vosko Wilk Nusair interpolation
   LHFCALC =     F    Hartree Fock is set to
   LHFONE  =     F    Hartree Fock one center treatment
   AEXX    =    0.0000 exact exchange contribution

 Linear response parameters
   LEPSILON=     F    determine dielectric tensor
   LRPA    =     F    only Hartree local field effects (RPA)
   LNABLA  =     F    use nabla operator in PAW spheres
   LVEL    =     F    velocity operator in full k-point grid
   LINTERFAST=   F  fast interpolation
   KINTER  =     0    interpolate to denser k-point grid
   CSHIFT  =0.1000    complex shift for real part using Kramers Kronig
   OMEGAMAX=  -1.0    maximum frequency
   DEG_THRESHOLD= 0.2000000E-02 threshold for treating states as degnerate
   RTIME   =   -0.100 relaxation time in fs
  (WPLASMAI=    0.000 imaginary part of plasma frequency in eV, 0.658/RTIME)
   DFIELD  = 0.0000000 0.0000000 0.0000000 field for delta impulse in time

 Orbital magnetization related:
   ORBITALMAG=     F  switch on orbital magnetization
   LCHIMAG   =     F  perturbation theory with respect to B field
   DQ        =  0.001000  dq finite difference perturbation B field
   LLRAUG    =     F  two centre corrections for induced B field



--------------------------------------------------------------------------------------------------------


 conjugate gradient relaxation of ions
 charge density and potential will be updated during run
 spin polarized calculation
 RMM-DIIS sequential band-by-band and
  variant of blocked Davidson during initial phase
 perform sub-space diagonalisation
    before iterative eigenvector-optimisation
 modified Broyden-mixing scheme, WC =      100.0
 initial mixing is a Kerker type mixing with AMIX =  0.4000 and BMIX =      1.0000
 Hartree-type preconditioning will be used
 using additional bands           20
 real space projection scheme for non local part
 use partial core corrections
 calculate Harris-corrections to forces   (improved forces if not selfconsistent)
 use gradient corrections 
 use of overlap-Matrix (Vanderbilt PP)
 Gauss-broadening in eV      SIGMA  =   0.02


--------------------------------------------------------------------------------------------------------


  energy-cutoff  :      550.00
  volume of cell :      212.15
      direct lattice vectors                 reciprocal lattice vectors
     5.964097189  0.000000000  0.000000000     0.167669971  0.000000000  0.000000000
     0.000000000  5.964097189  0.000000000     0.000000000  0.167669971  0.000000000
     0.000000000  0.000000000  5.964097189     0.000000000  0.000000000  0.167669971

  length of vectors
     5.964097189  5.964097189  5.964097189     0.167669971  0.167669971  0.167669971



 k-points in units of 2pi/SCALE and weight: k-points                                
   0.00000000  0.00000000  0.00000000       0.003
   0.13796843  0.00000000  0.00000000       0.006
   0.27593687  0.00000000  0.00000000       0.006
   0.41390530  0.00000000  0.00000000       0.006
   0.00000000  0.13796843  0.00000000       0.012
   0.13796843  0.13796843  0.00000000       0.023
   0.27593687  0.13796843  0.00000000       0.023
   0.41390530  0.13796843  0.00000000       0.023
   0.00000000  0.27593687  0.00000000       0.012
   0.13796843  0.27593687  0.00000000       0.023
   0.27593687  0.27593687  0.00000000       0.023
   0.41390530  0.27593687  0.00000000       0.023
   0.00000000  0.41390530  0.00000000       0.012
   0.13796843  0.41390530  0.00000000       0.023
   0.27593687  0.41390530  0.00000000       0.023
   0.41390530  0.41390530  0.00000000       0.023
   0.00000000  0.13796843  0.13796843       0.012
   0.13796843  0.13796843  0.13796843       0.023
   0.27593687  0.13796843  0.13796843       0.023
   0.41390530  0.13796843  0.13796843       0.023
   0.00000000  0.27593687  0.13796843       0.023
   0.13796843  0.27593687  0.13796843       0.047
   0.27593687  0.27593687  0.13796843       0.047
   0.41390530  0.27593687  0.13796843       0.047
   0.00000000  0.41390530  0.13796843       0.023
   0.13796843  0.41390530  0.13796843       0.047
   0.27593687  0.41390530  0.13796843       0.047
   0.41390530  0.41390530  0.13796843       0.047
   0.00000000  0.27593687  0.27593687       0.012
   0.13796843  0.27593687  0.27593687       0.023
   0.27593687  0.27593687  0.27593687       0.023
   0.41390530  0.27593687  0.27593687       0.023
   0.00000000  0.41390530  0.27593687       0.023
   0.13796843  0.41390530  0.27593687       0.047
   0.27593687  0.41390530  0.27593687       0.047
   0.41390530  0.41390530  0.27593687       0.047
   0.00000000  0.41390530  0.41390530       0.012
   0.13796843  0.41390530  0.41390530       0.023
   0.27593687  0.41390530  0.41390530       0.023
   0.41390530  0.41390530  0.41390530       0.023

 k-points in reciprocal lattice and weights: k-points                                
   0.00000000  0.00000000  0.00000000       0.003
   0.14285714  0.00000000  0.00000000       0.006
   0.28571429  0.00000000  0.00000000       0.006
   0.42857143  0.00000000  0.00000000       0.006
   0.00000000  0.14285714  0.00000000       0.012
   0.14285714  0.14285714  0.00000000       0.023
   0.28571429  0.14285714  0.00000000       0.023
   0.42857143  0.14285714  0.00000000       0.023
   0.00000000  0.28571429  0.00000000       0.012
   0.14285714  0.28571429  0.00000000       0.023
   0.28571429  0.28571429  0.00000000       0.023
   0.42857143  0.28571429  0.00000000       0.023
   0.00000000  0.42857143  0.00000000       0.012
   0.14285714  0.42857143  0.00000000       0.023
   0.28571429  0.42857143  0.00000000       0.023
   0.42857143  0.42857143  0.00000000       0.023
   0.00000000  0.14285714  0.14285714       0.012
   0.14285714  0.14285714  0.14285714       0.023
   0.28571429  0.14285714  0.14285714       0.023
   0.42857143  0.14285714  0.14285714       0.023
   0.00000000  0.28571429  0.14285714       0.023
   0.14285714  0.28571429  0.14285714       0.047
   0.28571429  0.28571429  0.14285714       0.047
   0.42857143  0.28571429  0.14285714       0.047
   0.00000000  0.42857143  0.14285714       0.023
   0.14285714  0.42857143  0.14285714       0.047
   0.28571429  0.42857143  0.14285714       0.047
   0.42857143  0.42857143  0.14285714       0.047
   0.00000000  0.28571429  0.28571429       0.012
   0.14285714  0.28571429  0.28571429       0.023
   0.28571429  0.28571429  0.28571429       0.023
   0.42857143  0.28571429  0.28571429       0.023
   0.00000000  0.42857143  0.28571429       0.023
   0.14285714  0.42857143  0.28571429       0.047
   0.28571429  0.42857143  0.28571429       0.047
   0.42857143  0.42857143  0.28571429       0.047
   0.00000000  0.42857143  0.42857143       0.012
   0.14285714  0.42857143  0.42857143       0.023
   0.28571429  0.42857143  0.42857143       0.023
   0.42857143  0.42857143  0.42857143       0.023

 position of ions in fractional coordinates (direct lattice) 
   0.25000000  0.26600667  0.26600667
   0.75000000  0.26600667  0.26600667
   0.25000000  0.73399333  0.26600667
   0.75000000  0.73399333  0.26600667
   0.25000000  0.26600667  0.73399333
   0.75000000  0.26600667  0.73399333
   0.25000000  0.73399333  0.73399333
   0.75000000  0.73399333  0.73399333
   0.50000000  0.50000000  0.00000000
   0.00000000  0.50000000  0.00000000
   0.00000000  0.00000000  0.50000000
   0.50000000  0.00000000  0.50000000
   0.50000000  0.50000000  0.50000000
   0.00000000  0.50000000  0.50000000
   0.00000000  0.00000000  0.00000000
   0.50000000  0.00000000  0.00000000

 position of ions in cartesian coordinates  (Angst):
   1.49102430  1.58648961  1.58648961
   4.47307289  1.58648961  1.58648961
   1.49102430  4.37760758  1.58648961
   4.47307289  4.37760758  1.58648961
   1.49102430  1.58648961  4.37760758
   4.47307289  1.58648961  4.37760758
   1.49102430  4.37760758  4.37760758
   4.47307289  4.37760758  4.37760758
   2.98204859  2.98204859  0.00000000
   0.00000000  2.98204859  0.00000000
   0.00000000  0.00000000  2.98204859
   2.98204859  0.00000000  2.98204859
   2.98204859  2.98204859  2.98204859
   0.00000000  2.98204859  2.98204859
   0.00000000  0.00000000  0.00000000
   2.98204859  0.00000000  0.00000000



--------------------------------------------------------------------------------------------------------


 k-point  1 :   0.0000 0.0000 0.0000  plane waves:    6235
 k-point  2 :   0.1429 0.0000 0.0000  plane waves:    6211
 k-point  3 :   0.2857 0.0000 0.0000  plane waves:    6195
 k-point  4 :   0.4286 0.0000 0.0000  plane waves:    6222
 k-point  5 :   0.0000 0.1429 0.0000  plane waves:    6211
 k-point  6 :   0.1429 0.1429 0.0000  plane waves:    6226
 k-point  7 :   0.2857 0.1429 0.0000  plane waves:    6226
 k-point  8 :   0.4286 0.1429 0.0000  plane waves:    6222
 k-point  9 :   0.0000 0.2857 0.0000  plane waves:    6195
 k-point 10 :   0.1429 0.2857 0.0000  plane waves:    6226
 k-point 11 :   0.2857 0.2857 0.0000  plane waves:    6222
 k-point 12 :   0.4286 0.2857 0.0000  plane waves:    6210
 k-point 13 :   0.0000 0.4286 0.0000  plane waves:    6222
 k-point 14 :   0.1429 0.4286 0.0000  plane waves:    6222
 k-point 15 :   0.2857 0.4286 0.0000  plane waves:    6210
 k-point 16 :   0.4286 0.4286 0.0000  plane waves:    6200
 k-point 17 :   0.0000 0.1429 0.1429  plane waves:    6226
 k-point 18 :   0.1429 0.1429 0.1429  plane waves:    6235
 k-point 19 :   0.2857 0.1429 0.1429  plane waves:    6222
 k-point 20 :   0.4286 0.1429 0.1429  plane waves:    6208
 k-point 21 :   0.0000 0.2857 0.1429  plane waves:    6226
 k-point 22 :   0.1429 0.2857 0.1429  plane waves:    6222
 k-point 23 :   0.2857 0.2857 0.1429  plane waves:    6214
 k-point 24 :   0.4286 0.2857 0.1429  plane waves:    6211
 k-point 25 :   0.0000 0.4286 0.1429  plane waves:    6222
 k-point 26 :   0.1429 0.4286 0.1429  plane waves:    6208
 k-point 27 :   0.2857 0.4286 0.1429  plane waves:    6211
 k-point 28 :   0.4286 0.4286 0.1429  plane waves:    6217
 k-point 29 :   0.0000 0.2857 0.2857  plane waves:    6222
 k-point 30 :   0.1429 0.2857 0.2857  plane waves:    6214
 k-point 31 :   0.2857 0.2857 0.2857  plane waves:    6217
 k-point 32 :   0.4286 0.2857 0.2857  plane waves:    6220
 k-point 33 :   0.0000 0.4286 0.2857  plane waves:    6210
 k-point 34 :   0.1429 0.4286 0.2857  plane waves:    6211
 k-point 35 :   0.2857 0.4286 0.2857  plane waves:    6220
 k-point 36 :   0.4286 0.4286 0.2857  plane waves:    6200
 k-point 37 :   0.0000 0.4286 0.4286  plane waves:    6200
 k-point 38 :   0.1429 0.4286 0.4286  plane waves:    6217
 k-point 39 :   0.2857 0.4286 0.4286  plane waves:    6200
 k-point 40 :   0.4286 0.4286 0.4286  plane waves:    6167

 maximum and minimum number of plane-waves per node :      6235     6167

 maximum number of plane-waves:      6235
 maximum index in each direction: 
   IXMAX=   11   IYMAX=   11   IZMAX=   11
   IXMIN=  -11   IYMIN=  -11   IZMIN=  -11


 serial   3D FFT for wavefunctions
 parallel 3D FFT for charge:
    minimum data exchange during FFTs selected (reduces bandwidth)


 total amount of memory used by VASP MPI-rank0   103632. kBytes
=======================================================================

   base      :      30000. kBytes
   nonlr-proj:       6803. kBytes
   fftplans  :       1269. kBytes
   grid      :       6573. kBytes
   one-center:        497. kBytes
   wavefun   :      58490. kBytes

     INWAV:  cpu time    0.0000: real time    0.0000
 Broyden mixing: mesh for mixing (old mesh)
   NGX = 23   NGY = 23   NGZ = 23
  (NGX  = 72   NGY  = 72   NGZ  = 72)
  gives a total of  12167 points

 initial charge density was supplied:
 charge density of overlapping atoms calculated
 number of electron     128.0000000 magnetization       8.8000000
 keeping initial charge density in first step


--------------------------------------------------------------------------------------------------------


 Maximum index for non-local projection operator         3887
 Maximum index for augmentation-charges         2111 (set IRDMAX)


--------------------------------------------------------------------------------------------------------


 First call to EWALD:  gamma=   0.297
 Maximum number of real-space cells 3x 3x 3
 Maximum number of reciprocal cells 3x 3x 3

    FEWALD:  cpu time    0.0020: real time    0.0020


--------------------------------------- Iteration      1(   1)  ---------------------------------------


    POTLOK:  cpu time    0.1090: real time    0.1106
    SETDIJ:  cpu time    0.0353: real time    0.0353
     EDDAV:  cpu time   23.7333: real time   23.7614
       DOS:  cpu time    0.0036: real time    0.0037
    --------------------------------------------
      LOOP:  cpu time   23.8813: real time   23.9110

 eigenvalue-minimisations  : 13440
 total energy-change (2. order) : 0.1067060E+04  (-0.5426838E+04)
 number of electron     128.0000000 magnetization       8.8000000
 augmentation part      128.0000000 magnetization       8.8000000

 Free energy of the ion-electron system (eV)
  ---------------------------------------------------
  alpha Z        PSCENC =       530.41185366
  Ewald energy   TEWEN  =     -9192.86165286
  -Hartree energ DENC   =     -3230.27578745
  -exchange      EXHF   =         0.00000000
  -V(xc)+E(xc)   XCENC  =        78.24625525
  PAW double counting   =     10320.96726947   -10647.99417394
  entropy T*S    EENTRO =        -0.00144576
  eigenvalues    EBANDS =      1979.10593237
  atomic energy  EATOM  =     11229.46195210
  Solvation  Ediel_sol  =         0.00000000
  ---------------------------------------------------
  free energy    TOTEN  =      1067.06020283 eV

  energy without entropy =     1067.06164859  energy(sigma->0) =     1067.06092571


--------------------------------------------------------------------------------------------------------




--------------------------------------- Iteration      1(   2)  ---------------------------------------


     EDDAV:  cpu time   23.7844: real time   23.8237
       DOS:  cpu time    0.0036: real time    0.0036
    --------------------------------------------
      LOOP:  cpu time   23.7880: real time   23.8273

 eigenvalue-minimisations  : 13440
 total energy-change (2. order) :-0.1065820E+04  (-0.1032672E+04)
 number of electron     128.0000000 magnetization       8.8000000
 augmentation part      128.0000000 magnetization       8.8000000

 Free energy of the ion-electron system (eV)
  ---------------------------------------------------
  alpha Z        PSCENC =       530.41185366
  Ewald energy   TEWEN  =     -9192.86165286
  -Hartree energ DENC   =     -3230.27578745
  -exchange      EXHF   =         0.00000000
  -V(xc)+E(xc)   XCENC  =        78.24625525
  PAW double counting   =     10320.96726947   -10647.99417394
  entropy T*S    EENTRO =        -0.00258612
  eigenvalues    EBANDS =       913.28720938
  atomic energy  EATOM  =     11229.46195210
  Solvation  Ediel_sol  =         0.00000000
  ---------------------------------------------------
  free energy    TOTEN  =         1.24033949 eV

  energy without entropy =        1.24292561  energy(sigma->0) =        1.24163255


--------------------------------------------------------------------------------------------------------




--------------------------------------- Iteration      1(   3)  ---------------------------------------


     EDDAV:  cpu time   25.9762: real time   26.0060
       DOS:  cpu time    0.0037: real time    0.0037
    --------------------------------------------
      LOOP:  cpu time   25.9799: real time   26.0097

 eigenvalue-minimisations  : 15036
 total energy-change (2. order) :-0.1113150E+03  (-0.9990944E+02)
 number of electron     128.0000000 magnetization       8.8000000
 augmentation part      128.0000000 magnetization       8.8000000

 Free energy of the ion-electron system (eV)
  ---------------------------------------------------
  alpha Z        PSCENC =       530.41185366
  Ewald energy   TEWEN  =     -9192.86165286
  -Hartree energ DENC   =     -3230.27578745
  -exchange      EXHF   =         0.00000000
  -V(xc)+E(xc)   XCENC  =        78.24625525
  PAW double counting   =     10320.96726947   -10647.99417394
  entropy T*S    EENTRO =        -0.00316981
  eigenvalues    EBANDS =       801.97278765
  atomic energy  EATOM  =     11229.46195210
  Solvation  Ediel_sol  =         0.00000000
  ---------------------------------------------------
  free energy    TOTEN  =      -110.07466593 eV

  energy without entropy =     -110.07149612  energy(sigma->0) =     -110.07308103


--------------------------------------------------------------------------------------------------------




--------------------------------------- Iteration      1(   4)  ---------------------------------------


     EDDAV:  cpu time   33.6138: real time   33.6416
       DOS:  cpu time    0.0035: real time    0.0035
    --------------------------------------------
      LOOP:  cpu time   33.6173: real time   33.6451

 eigenvalue-minimisations  : 20544
 total energy-change (2. order) :-0.6947650E+01  (-0.6556247E+01)
 number of electron     128.0000000 magnetization       8.8000000
 augmentation part      128.0000000 magnetization       8.8000000

 Free energy of the ion-electron system (eV)
  ---------------------------------------------------
  alpha Z        PSCENC =       530.41185366
  Ewald energy   TEWEN  =     -9192.86165286
  -Hartree energ DENC   =     -3230.27578745
  -exchange      EXHF   =         0.00000000
  -V(xc)+E(xc)   XCENC  =        78.24625525
  PAW double counting   =     10320.96726947   -10647.99417394
  entropy T*S    EENTRO =        -0.00356452
  eigenvalues    EBANDS =       795.02553214
  atomic energy  EATOM  =     11229.46195210
  Solvation  Ediel_sol  =         0.00000000
  ---------------------------------------------------
  free energy    TOTEN  =      -117.02231615 eV

  energy without entropy =     -117.01875163  energy(sigma->0) =     -117.02053389


--------------------------------------------------------------------------------------------------------




--------------------------------------- Iteration      1(   5)  ---------------------------------------


     EDDAV:  cpu time   32.3431: real time   32.3692
       DOS:  cpu time    0.0038: real time    0.0038
    CHARGE:  cpu time    0.6819: real time    0.6824
    MIXING:  cpu time    0.0017: real time    0.0017
    --------------------------------------------
      LOOP:  cpu time   33.0304: real time   33.0571

 eigenvalue-minimisations  : 19788
 total energy-change (2. order) :-0.2262090E+00  (-0.2251626E+00)
 number of electron     127.9999728 magnetization       7.5581809
 augmentation part       60.5644193 magnetization       4.9516472

 Broyden mixing:
  rms(total) = 0.34583E+01    rms(broyden)= 0.34583E+01
  rms(prec ) = 0.53307E+01
  weight for this iteration     100.00

 Free energy of the ion-electron system (eV)
  ---------------------------------------------------
  alpha Z        PSCENC =       530.41185366
  Ewald energy   TEWEN  =     -9192.86165286
  -Hartree energ DENC   =     -3230.27578745
  -exchange      EXHF   =         0.00000000
  -V(xc)+E(xc)   XCENC  =        78.24625525
  PAW double counting   =     10320.96726947   -10647.99417394
  entropy T*S    EENTRO =        -0.00346030
  eigenvalues    EBANDS =       794.79921891
  atomic energy  EATOM  =     11229.46195210
  Solvation  Ediel_sol  =         0.00000000
  ---------------------------------------------------
  free energy    TOTEN  =      -117.24852516 eV

  energy without entropy =     -117.24506486  energy(sigma->0) =     -117.24679501


--------------------------------------------------------------------------------------------------------




--------------------------------------- Iteration      1(   6)  ---------------------------------------


    POTLOK:  cpu time    0.1042: real time    0.1048
    SETDIJ:  cpu time    0.0380: real time    0.0380
    EDDIAG:  cpu time    3.2789: real time    3.2817
  RMM-DIIS:  cpu time   10.5882: real time   10.5965
    ORTHCH:  cpu time    0.6227: real time    0.6231
       DOS:  cpu time    0.0038: real time    0.0039
    CHARGE:  cpu time    0.6821: real time    0.6826
    MIXING:  cpu time    0.0018: real time    0.0018
    --------------------------------------------
      LOOP:  cpu time   15.3197: real time   15.3323

 eigenvalue-minimisations  : 13440
 total energy-change (2. order) : 0.7393734E+01  (-0.1644716E+02)
 number of electron     127.9999806 magnetization       8.5923511
 augmentation part       69.7926243 magnetization       5.8654198

 Broyden mixing:
  rms(total) = 0.45573E+01    rms(broyden)= 0.45572E+01
  rms(prec ) = 0.60121E+01
  weight for this iteration     100.00

 eigenvalues of (default mixing * dielectric matrix)
  average eigenvalue GAMMA=   0.2244
  0.2244

 Free energy of the ion-electron system (eV)
  ---------------------------------------------------
  alpha Z        PSCENC =       530.41185366
  Ewald energy   TEWEN  =     -9192.86165286
  -Hartree energ DENC   =     -2993.87381939
  -exchange      EXHF   =         0.00000000
  -V(xc)+E(xc)   XCENC  =        66.16735613
  PAW double counting   =     11110.21193353   -11402.95377895
  entropy T*S    EENTRO =        -0.00455710
  eigenvalues    EBANDS =       543.58592186
  atomic energy  EATOM  =     11229.46195210
  Solvation  Ediel_sol  =         0.00000000
  ---------------------------------------------------
  free energy    TOTEN  =      -109.85479102 eV

  energy without entropy =     -109.85023392  energy(sigma->0) =     -109.85251247


--------------------------------------------------------------------------------------------------------




--------------------------------------- Iteration      1(   7)  ---------------------------------------


    POTLOK:  cpu time    0.0975: real time    0.0976
    SETDIJ:  cpu time    0.0354: real time    0.0354
    EDDIAG:  cpu time    3.2298: real time    3.2325
  RMM-DIIS:  cpu time   10.5115: real time   10.5196
    ORTHCH:  cpu time    0.6241: real time    0.6246
       DOS:  cpu time    0.0036: real time    0.0037
    CHARGE:  cpu time    0.6874: real time    0.6879
    MIXING:  cpu time    0.0018: real time    0.0018
    --------------------------------------------
      LOOP:  cpu time   15.1912: real time   15.2031

 eigenvalue-minimisations  : 13497
 total energy-change (2. order) : 0.9208970E-01  (-0.2629589E+01)
 number of electron     127.9999686 magnetization       8.8588441
 augmentation part       70.3041930 magnetization       6.9625414

 Broyden mixing:
  rms(total) = 0.31034E+01    rms(broyden)= 0.31033E+01
  rms(prec ) = 0.51843E+01
  weight for this iteration     100.00

 eigenvalues of (default mixing * dielectric matrix)
  average eigenvalue GAMMA=   0.4560
  0.4560  0.4560

 Free energy of the ion-electron system (eV)
  ---------------------------------------------------
  alpha Z        PSCENC =       530.41185366
  Ewald energy   TEWEN  =     -9192.86165286
  -Hartree energ DENC   =     -2987.59476622
  -exchange      EXHF   =         0.00000000
  -V(xc)+E(xc)   XCENC  =        67.29450938
  PAW double counting   =     11408.44055751   -11708.46660606
  entropy T*S    EENTRO =        -0.00136194
  eigenvalues    EBANDS =       543.55281311
  atomic energy  EATOM  =     11229.46195210
  Solvation  Ediel_sol  =         0.00000000
  ---------------------------------------------------
  free energy    TOTEN  =      -109.76270131 eV

  energy without entropy =     -109.76133938  energy(sigma->0) =     -109.76202035


--------------------------------------------------------------------------------------------------------




--------------------------------------- Iteration      1(   8)  ---------------------------------------


    POTLOK:  cpu time    0.0986: real time    0.0987
    SETDIJ:  cpu time    0.0355: real time    0.0356
    EDDIAG:  cpu time    3.2546: real time    3.2573
  RMM-DIIS:  cpu time   10.5067: real time   10.5147
    ORTHCH:  cpu time    0.6256: real time    0.6260
       DOS:  cpu time    0.0038: real time    0.0038
    CHARGE:  cpu time    0.6824: real time    0.6828
    MIXING:  cpu time    0.0018: real time    0.0018
    --------------------------------------------
      LOOP:  cpu time   15.2090: real time   15.2208

 eigenvalue-minimisations  : 13474
 total energy-change (2. order) : 0.5062520E+01  (-0.2077314E+01)
 number of electron     127.9999785 magnetization       9.5957413
 augmentation part       67.1391582 magnetization       6.5456783

 Broyden mixing:
  rms(total) = 0.18313E+01    rms(broyden)= 0.18311E+01
  rms(prec ) = 0.32936E+01
  weight for this iteration     100.00

 eigenvalues of (default mixing * dielectric matrix)
  average eigenvalue GAMMA=   0.5174
  0.8135  0.5288  0.2100

 Free energy of the ion-electron system (eV)
  ---------------------------------------------------
  alpha Z        PSCENC =       530.41185366
  Ewald energy   TEWEN  =     -9192.86165286
  -Hartree energ DENC   =     -3051.56492117
  -exchange      EXHF   =         0.00000000
  -V(xc)+E(xc)   XCENC  =        72.09235472
  PAW double counting   =     11797.09510724   -12123.73153041
  entropy T*S    EENTRO =        -0.00261298
  eigenvalues    EBANDS =       634.39926812
  atomic energy  EATOM  =     11229.46195210
  Solvation  Ediel_sol  =         0.00000000
  ---------------------------------------------------
  free energy    TOTEN  =      -104.70018158 eV

  energy without entropy =     -104.69756860  energy(sigma->0) =     -104.69887509


--------------------------------------------------------------------------------------------------------




--------------------------------------- Iteration      1(   9)  ---------------------------------------


    POTLOK:  cpu time    0.0978: real time    0.0978
    SETDIJ:  cpu time    0.0357: real time    0.0357
    EDDIAG:  cpu time    3.2709: real time    3.2736
  RMM-DIIS:  cpu time   10.9211: real time   10.9293
    ORTHCH:  cpu time    0.6255: real time    0.6260
       DOS:  cpu time    0.0037: real time    0.0038
    CHARGE:  cpu time    0.6890: real time    0.6894
    MIXING:  cpu time    0.0018: real time    0.0018
    --------------------------------------------
      LOOP:  cpu time   15.6455: real time   15.6575

 eigenvalue-minimisations  : 13829
 total energy-change (2. order) : 0.1002995E+01  (-0.2919677E+00)
 number of electron     127.9999750 magnetization       9.6076032
 augmentation part       67.3538414 magnetization       7.9253206

 Broyden mixing:
  rms(total) = 0.11936E+01    rms(broyden)= 0.11935E+01
  rms(prec ) = 0.18750E+01
  weight for this iteration     100.00

 eigenvalues of (default mixing * dielectric matrix)
  average eigenvalue GAMMA=   0.5591
  1.1223  0.5153  0.4207  0.1780

 Free energy of the ion-electron system (eV)
  ---------------------------------------------------
  alpha Z        PSCENC =       530.41185366
  Ewald energy   TEWEN  =     -9192.86165286
  -Hartree energ DENC   =     -3044.14117043
  -exchange      EXHF   =         0.00000000
  -V(xc)+E(xc)   XCENC  =        72.33655883
  PAW double counting   =     12072.72865690   -12405.00116336
  entropy T*S    EENTRO =        -0.00111033
  eigenvalues    EBANDS =       633.36888905
  atomic energy  EATOM  =     11229.46195210
  Solvation  Ediel_sol  =         0.00000000
  ---------------------------------------------------
  free energy    TOTEN  =      -103.69718645 eV

  energy without entropy =     -103.69607611  energy(sigma->0) =     -103.69663128


--------------------------------------------------------------------------------------------------------




--------------------------------------- Iteration      1(  10)  ---------------------------------------


    POTLOK:  cpu time    0.1002: real time    0.1007
    SETDIJ:  cpu time    0.0355: real time    0.0355
    EDDIAG:  cpu time    3.2817: real time    3.2845
  RMM-DIIS:  cpu time   10.7538: real time   10.7619
    ORTHCH:  cpu time    0.6297: real time    0.6301
       DOS:  cpu time    0.0037: real time    0.0037
    CHARGE:  cpu time    0.6919: real time    0.6923
    MIXING:  cpu time    0.0020: real time    0.0020
    --------------------------------------------
      LOOP:  cpu time   15.4985: real time   15.5108

 eigenvalue-minimisations  : 13441
 total energy-change (2. order) : 0.3715654E+00  (-0.1303696E+00)
 number of electron     127.9999736 magnetization       9.3989607
 augmentation part       67.8521337 magnetization       7.0787524

 Broyden mixing:
  rms(total) = 0.67243E+00    rms(broyden)= 0.67242E+00
  rms(prec ) = 0.10273E+01
  weight for this iteration     100.00

 eigenvalues of (default mixing * dielectric matrix)
  average eigenvalue GAMMA=   0.5700
  1.2439  0.5967  0.5640  0.1921  0.2532

 Free energy of the ion-electron system (eV)
  ---------------------------------------------------
  alpha Z        PSCENC =       530.41185366
  Ewald energy   TEWEN  =     -9192.86165286
  -Hartree energ DENC   =     -3032.31602804
  -exchange      EXHF   =         0.00000000
  -V(xc)+E(xc)   XCENC  =        72.73198273
  PAW double counting   =     12314.94624088   -12650.00872803
  entropy T*S    EENTRO =        -0.00091717
  eigenvalues    EBANDS =       624.30967567
  atomic energy  EATOM  =     11229.46195210
  Solvation  Ediel_sol  =         0.00000000
  ---------------------------------------------------
  free energy    TOTEN  =      -103.32562106 eV

  energy without entropy =     -103.32470389  energy(sigma->0) =     -103.32516247


--------------------------------------------------------------------------------------------------------




--------------------------------------- Iteration      1(  11)  ---------------------------------------


    POTLOK:  cpu time    0.0971: real time    0.0972
    SETDIJ:  cpu time    0.0357: real time    0.0358
    EDDIAG:  cpu time    3.2895: real time    3.2924
  RMM-DIIS:  cpu time   10.7790: real time   10.7875
    ORTHCH:  cpu time    0.6266: real time    0.6271
       DOS:  cpu time    0.0036: real time    0.0037
    CHARGE:  cpu time    0.6895: real time    0.6899
    MIXING:  cpu time    0.0021: real time    0.0021
    --------------------------------------------
      LOOP:  cpu time   15.5232: real time   15.5356

 eigenvalue-minimisations  : 13668
 total energy-change (2. order) : 0.8877164E-01  (-0.3521772E-01)
 number of electron     127.9999750 magnetization       9.2511135
 augmentation part       67.5969705 magnetization       7.0578642

 Broyden mixing:
  rms(total) = 0.31251E+00    rms(broyden)= 0.31250E+00
  rms(prec ) = 0.42998E+00
  weight for this iteration     100.00

 eigenvalues of (default mixing * dielectric matrix)
  average eigenvalue GAMMA=   0.7429
  1.9682  0.7109  0.7109  0.6213  0.1865  0.2598

 Free energy of the ion-electron system (eV)
  ---------------------------------------------------
  alpha Z        PSCENC =       530.41185366
  Ewald energy   TEWEN  =     -9192.86165286
  -Hartree energ DENC   =     -3033.04271804
  -exchange      EXHF   =         0.00000000
  -V(xc)+E(xc)   XCENC  =        74.28349935
  PAW double counting   =     12546.61530503   -12886.98187039
  entropy T*S    EENTRO =        -0.00074282
  eigenvalues    EBANDS =       628.87752456
  atomic energy  EATOM  =     11229.46195210
  Solvation  Ediel_sol  =         0.00000000
  ---------------------------------------------------
  free energy    TOTEN  =      -103.23684941 eV

  energy without entropy =     -103.23610659  energy(sigma->0) =     -103.23647800


--------------------------------------------------------------------------------------------------------




--------------------------------------- Iteration      1(  12)  ---------------------------------------


    POTLOK:  cpu time    0.0970: real time    0.0970
    SETDIJ:  cpu time    0.0356: real time    0.0356
    EDDIAG:  cpu time    3.3001: real time    3.3029
  RMM-DIIS:  cpu time   10.8871: real time   10.8956
    ORTHCH:  cpu time    0.6244: real time    0.6249
       DOS:  cpu time    0.0036: real time    0.0036
    CHARGE:  cpu time    0.6964: real time    0.6969
    MIXING:  cpu time    0.0022: real time    0.0022
    --------------------------------------------
      LOOP:  cpu time   15.6463: real time   15.6588

 eigenvalue-minimisations  : 13745
 total energy-change (2. order) :-0.5734429E-01  (-0.2251407E-01)
 number of electron     127.9999745 magnetization       9.0660757
 augmentation part       67.7667101 magnetization       6.8405010

 Broyden mixing:
  rms(total) = 0.33252E+00    rms(broyden)= 0.33252E+00
  rms(prec ) = 0.54109E+00
  weight for this iteration     100.00

 eigenvalues of (default mixing * dielectric matrix)
  average eigenvalue GAMMA=   0.7244
  2.2439  0.7751  0.7751  0.5951  0.1860  0.2624  0.2335

 Free energy of the ion-electron system (eV)
  ---------------------------------------------------
  alpha Z        PSCENC =       530.41185366
  Ewald energy   TEWEN  =     -9192.86165286
  -Hartree energ DENC   =     -3028.44753044
  -exchange      EXHF   =         0.00000000
  -V(xc)+E(xc)   XCENC  =        74.81653928
  PAW double counting   =     12692.34124574   -13034.45471260
  entropy T*S    EENTRO =        -0.00101603
  eigenvalues    EBANDS =       625.43912745
  atomic energy  EATOM  =     11229.46195210
  Solvation  Ediel_sol  =         0.00000000
  ---------------------------------------------------
  free energy    TOTEN  =      -103.29419370 eV

  energy without entropy =     -103.29317767  energy(sigma->0) =     -103.29368568


--------------------------------------------------------------------------------------------------------




--------------------------------------- Iteration      1(  13)  ---------------------------------------


    POTLOK:  cpu time    0.0972: real time    0.0973
    SETDIJ:  cpu time    0.0357: real time    0.0357
    EDDIAG:  cpu time    3.3425: real time    3.3634
  RMM-DIIS:  cpu time   10.8769: real time   10.8854
    ORTHCH:  cpu time    0.6269: real time    0.6274
       DOS:  cpu time    0.0037: real time    0.0037
    CHARGE:  cpu time    0.6970: real time    0.6975
    MIXING:  cpu time    0.0023: real time    0.0023
    --------------------------------------------
      LOOP:  cpu time   15.6823: real time   15.7128

 eigenvalue-minimisations  : 13888
 total energy-change (2. order) : 0.5058607E-01  (-0.8335035E-02)
 number of electron     127.9999751 magnetization       8.9636839
 augmentation part       67.6899600 magnetization       6.7766327

 Broyden mixing:
  rms(total) = 0.11453E+00    rms(broyden)= 0.11452E+00
  rms(prec ) = 0.15262E+00
  weight for this iteration     100.00

 eigenvalues of (default mixing * dielectric matrix)
  average eigenvalue GAMMA=   0.7569
  2.3174  0.8968  0.8968  0.6153  0.6153  0.1869  0.2833  0.2430

 Free energy of the ion-electron system (eV)
  ---------------------------------------------------
  alpha Z        PSCENC =       530.41185366
  Ewald energy   TEWEN  =     -9192.86165286
  -Hartree energ DENC   =     -3027.98143584
  -exchange      EXHF   =         0.00000000
  -V(xc)+E(xc)   XCENC  =        75.27572604
  PAW double counting   =     12802.72249980   -13146.90815369
  entropy T*S    EENTRO =        -0.00107750
  eigenvalues    EBANDS =       626.63668065
  atomic energy  EATOM  =     11229.46195210
  Solvation  Ediel_sol  =         0.00000000
  ---------------------------------------------------
  free energy    TOTEN  =      -103.24360763 eV

  energy without entropy =     -103.24253013  energy(sigma->0) =     -103.24306888


--------------------------------------------------------------------------------------------------------




--------------------------------------- Iteration      1(  14)  ---------------------------------------


    POTLOK:  cpu time    0.1184: real time    0.1191
    SETDIJ:  cpu time    0.0383: real time    0.0383
    EDDIAG:  cpu time    3.3663: real time    3.3692
  RMM-DIIS:  cpu time   11.8686: real time   11.8782
    ORTHCH:  cpu time    0.6269: real time    0.6274
       DOS:  cpu time    0.0037: real time    0.0038
    CHARGE:  cpu time    0.6972: real time    0.6977
    MIXING:  cpu time    0.0025: real time    0.0025
    --------------------------------------------
      LOOP:  cpu time   16.7220: real time   16.7362

 eigenvalue-minimisations  : 14920
 total energy-change (2. order) : 0.2982833E-02  (-0.2481014E-02)
 number of electron     127.9999751 magnetization       8.9371964
 augmentation part       67.6881826 magnetization       6.7301516

 Broyden mixing:
  rms(total) = 0.50195E-01    rms(broyden)= 0.50192E-01
  rms(prec ) = 0.59418E-01
  weight for this iteration     100.00

 eigenvalues of (default mixing * dielectric matrix)
  average eigenvalue GAMMA=   0.8456
  2.2200  1.6579  1.0030  0.7090  0.7090  0.5936  0.1868  0.2870  0.2441

 Free energy of the ion-electron system (eV)
  ---------------------------------------------------
  alpha Z        PSCENC =       530.41185366
  Ewald energy   TEWEN  =     -9192.86165286
  -Hartree energ DENC   =     -3027.41049131
  -exchange      EXHF   =         0.00000000
  -V(xc)+E(xc)   XCENC  =        75.29671295
  PAW double counting   =     12845.08268564   -13189.66997705
  entropy T*S    EENTRO =        -0.00103377
  eigenvalues    EBANDS =       626.44932584
  atomic energy  EATOM  =     11229.46195210
  Solvation  Ediel_sol  =         0.00000000
  ---------------------------------------------------
  free energy    TOTEN  =      -103.24062479 eV

  energy without entropy =     -103.23959102  energy(sigma->0) =     -103.24010791


--------------------------------------------------------------------------------------------------------




--------------------------------------- Iteration      1(  15)  ---------------------------------------


    POTLOK:  cpu time    0.0980: real time    0.0981
    SETDIJ:  cpu time    0.0358: real time    0.0358
    EDDIAG:  cpu time    3.3160: real time    3.3188
  RMM-DIIS:  cpu time   11.9660: real time   11.9755
    ORTHCH:  cpu time    0.6283: real time    0.6287
       DOS:  cpu time    0.0038: real time    0.0038
    CHARGE:  cpu time    0.6967: real time    0.6972
    MIXING:  cpu time    0.0027: real time    0.0027
    --------------------------------------------
      LOOP:  cpu time   16.7472: real time   16.7606

 eigenvalue-minimisations  : 14936
 total energy-change (2. order) : 0.3938525E-03  (-0.3799115E-03)
 number of electron     127.9999751 magnetization       8.9150300
 augmentation part       67.6981034 magnetization       6.7126749

 Broyden mixing:
  rms(total) = 0.23715E-01    rms(broyden)= 0.23715E-01
  rms(prec ) = 0.26569E-01
  weight for this iteration     100.00

 eigenvalues of (default mixing * dielectric matrix)
  average eigenvalue GAMMA=   0.9089
  2.5542  1.9196  0.9909  0.9909  0.6754  0.6754  0.5650  0.1868  0.2442  0.2870

 Free energy of the ion-electron system (eV)
  ---------------------------------------------------
  alpha Z        PSCENC =       530.41185366
  Ewald energy   TEWEN  =     -9192.86165286
  -Hartree energ DENC   =     -3027.25845652
  -exchange      EXHF   =         0.00000000
  -V(xc)+E(xc)   XCENC  =        75.22556995
  PAW double counting   =     12853.49076767   -13197.91431021
  entropy T*S    EENTRO =        -0.00105693
  eigenvalues    EBANDS =       626.20510220
  atomic energy  EATOM  =     11229.46195210
  Solvation  Ediel_sol  =         0.00000000
  ---------------------------------------------------
  free energy    TOTEN  =      -103.24023094 eV

  energy without entropy =     -103.23917401  energy(sigma->0) =     -103.23970248


--------------------------------------------------------------------------------------------------------




--------------------------------------- Iteration      1(  16)  ---------------------------------------


    POTLOK:  cpu time    0.0973: real time    0.0974
    SETDIJ:  cpu time    0.0358: real time    0.0358
    EDDIAG:  cpu time    3.3236: real time    3.3265
  RMM-DIIS:  cpu time   12.7840: real time   12.7944
    ORTHCH:  cpu time    0.6290: real time    0.6295
       DOS:  cpu time    0.0036: real time    0.0037
    CHARGE:  cpu time    0.6996: real time    0.7000
    MIXING:  cpu time    0.0028: real time    0.0028
    --------------------------------------------
      LOOP:  cpu time   17.5756: real time   17.5901

 eigenvalue-minimisations  : 16112
 total energy-change (2. order) :-0.1569187E-03  (-0.9192263E-04)
 number of electron     127.9999751 magnetization       8.9195261
 augmentation part       67.7037273 magnetization       6.7206022

 Broyden mixing:
  rms(total) = 0.83488E-02    rms(broyden)= 0.83483E-02
  rms(prec ) = 0.10548E-01
  weight for this iteration     100.00

 eigenvalues of (default mixing * dielectric matrix)
  average eigenvalue GAMMA=   0.9471
  2.4141  2.4141  1.0763  1.0763  0.7625  0.7625  0.5973  0.5973  0.1868  0.2442
  0.2871

 Free energy of the ion-electron system (eV)
  ---------------------------------------------------
  alpha Z        PSCENC =       530.41185366
  Ewald energy   TEWEN  =     -9192.86165286
  -Hartree energ DENC   =     -3027.16384877
  -exchange      EXHF   =         0.00000000
  -V(xc)+E(xc)   XCENC  =        75.33341775
  PAW double counting   =     12862.70579606   -13207.17966805
  entropy T*S    EENTRO =        -0.00105024
  eigenvalues    EBANDS =       626.05281250
  atomic energy  EATOM  =     11229.46195210
  Solvation  Ediel_sol  =         0.00000000
  ---------------------------------------------------
  free energy    TOTEN  =      -103.24038786 eV

  energy without entropy =     -103.23933762  energy(sigma->0) =     -103.23986274


--------------------------------------------------------------------------------------------------------




--------------------------------------- Iteration      1(  17)  ---------------------------------------


    POTLOK:  cpu time    0.0988: real time    0.0989
    SETDIJ:  cpu time    0.0356: real time    0.0356
    EDDIAG:  cpu time    3.3384: real time    3.3413
  RMM-DIIS:  cpu time   11.3296: real time   11.3387
    ORTHCH:  cpu time    0.6243: real time    0.6248
       DOS:  cpu time    0.0036: real time    0.0036
    CHARGE:  cpu time    0.6984: real time    0.6989
    MIXING:  cpu time    0.0030: real time    0.0030
    --------------------------------------------
      LOOP:  cpu time   16.1319: real time   16.1448

 eigenvalue-minimisations  : 14300
 total energy-change (2. order) : 0.3838134E-04  (-0.2032125E-04)
 number of electron     127.9999751 magnetization       8.9203664
 augmentation part       67.6979161 magnetization       6.7252531

 Broyden mixing:
  rms(total) = 0.44236E-02    rms(broyden)= 0.44234E-02
  rms(prec ) = 0.63719E-02
  weight for this iteration     100.00

 eigenvalues of (default mixing * dielectric matrix)
  average eigenvalue GAMMA=   0.9508
  2.4634  2.4634  1.1605  1.1605  0.1868  0.2442  0.2871  0.7699  0.7699  0.7420
  0.5889  0.5728

 Free energy of the ion-electron system (eV)
  ---------------------------------------------------
  alpha Z        PSCENC =       530.41185366
  Ewald energy   TEWEN  =     -9192.86165286
  -Hartree energ DENC   =     -3027.38694540
  -exchange      EXHF   =         0.00000000
  -V(xc)+E(xc)   XCENC  =        75.33635057
  PAW double counting   =     12860.74866017   -13205.18206938
  entropy T*S    EENTRO =        -0.00105066
  eigenvalues    EBANDS =       626.23255232
  atomic energy  EATOM  =     11229.46195210
  Solvation  Ediel_sol  =         0.00000000
  ---------------------------------------------------
  free energy    TOTEN  =      -103.24034948 eV

  energy without entropy =     -103.23929881  energy(sigma->0) =     -103.23982415


--------------------------------------------------------------------------------------------------------




--------------------------------------- Iteration      1(  18)  ---------------------------------------


    POTLOK:  cpu time    0.1102: real time    0.1109
    SETDIJ:  cpu time    0.0381: real time    0.0381
    EDDIAG:  cpu time    3.3996: real time    3.4024
  RMM-DIIS:  cpu time    7.4411: real time    7.4468
    ORTHCH:  cpu time    0.6251: real time    0.6255
       DOS:  cpu time    0.0035: real time    0.0036
    --------------------------------------------
      LOOP:  cpu time   11.6176: real time   11.6274

 eigenvalue-minimisations  :  8881
 total energy-change (2. order) : 0.9387160E-05  (-0.2696089E-05)
 number of electron     127.9999751 magnetization       8.9203664
 augmentation part       67.6979161 magnetization       6.7252531

 Free energy of the ion-electron system (eV)
  ---------------------------------------------------
[...]
     79      10.7485      0.00000
     80      11.3713      0.00000
     81      11.5354      0.00000
     82      11.9409      0.00000
     83      12.0669      0.00000
     84      12.3334      0.00000


--------------------------------------------------------------------------------------------------------


 soft charge-density along one line, spin component           1
         0         1         2         3         4         5         6         7         8         9
 total charge-density along one line

 soft charge-density along one line, spin component           2
         0         1         2         3         4         5         6         7         8         9
 total charge-density along one line

 pseudopotential strength for first ion, spin component:           1
 -1.723  -0.012   0.033   0.010  -0.001  -2.355  -0.012   0.032
 -0.012  -1.713  -0.007   0.012   0.013  -0.012  -2.345  -0.007
  0.033  -0.007  -1.746   0.016   0.007   0.032  -0.007  -2.377
  0.010   0.012   0.016  -1.723   0.029   0.009   0.012   0.015
 -0.001   0.013   0.007   0.029  -1.754  -0.000   0.012   0.006
 -2.355  -0.012   0.032   0.009  -0.000  -2.917  -0.011   0.030
 -0.012  -2.345  -0.007   0.012   0.012  -0.011  -2.908  -0.007
  0.032  -0.007  -2.377   0.015   0.006   0.030  -0.007  -2.938
  0.009   0.012   0.015  -2.355   0.028   0.009   0.011   0.015
 -0.000   0.012   0.006   0.028  -2.384  -0.000   0.012   0.006
  0.006   0.000  -0.001  -0.006   0.002   0.005   0.001  -0.001
  0.010   0.001  -0.002  -0.010   0.003   0.010   0.001  -0.002
 -0.000  -0.005   0.005   0.000   0.008  -0.000  -0.005   0.005
  0.000  -0.005  -0.010   0.000   0.000   0.000  -0.005  -0.009
 -0.005   0.000   0.000  -0.005   0.000  -0.005   0.000   0.000
 -0.000  -0.004   0.005   0.000   0.008  -0.000  -0.004   0.005
  0.000  -0.004  -0.009   0.000  -0.000   0.000  -0.004  -0.009
 -0.004   0.000   0.000  -0.004   0.000  -0.004   0.000   0.000
 pseudopotential strength for first ion, spin component:           2
 -1.534  -0.001  -0.042  -0.004  -0.001  -2.175  -0.001  -0.040
 -0.001  -1.525   0.013   0.001  -0.023  -0.001  -2.166   0.013
 -0.042   0.013  -1.472  -0.022   0.001  -0.040   0.013  -2.115
 -0.004   0.001  -0.022  -1.534  -0.036  -0.005   0.001  -0.021
 -0.001  -0.023   0.001  -0.036  -1.474  -0.001  -0.022   0.001
 -2.175  -0.001  -0.040  -0.005  -0.001  -2.746  -0.001  -0.038
 -0.001  -2.166   0.013   0.001  -0.022  -0.001  -2.737   0.012
 -0.040   0.013  -2.115  -0.021   0.001  -0.038   0.012  -2.688
 -0.005   0.001  -0.021  -2.175  -0.034  -0.005   0.001  -0.020
 -0.001  -0.022   0.001  -0.034  -2.117  -0.001  -0.021   0.001
 -0.008  -0.006  -0.000   0.008   0.000  -0.008  -0.006  -0.000
 -0.014  -0.011  -0.000   0.014   0.001  -0.014  -0.011  -0.000
  0.000  -0.010   0.006   0.000   0.010   0.000  -0.009   0.006
  0.000  -0.010  -0.011  -0.000  -0.000   0.000  -0.009  -0.011
 -0.010   0.000  -0.000  -0.010  -0.000  -0.009   0.000  -0.000
  0.000  -0.011   0.006   0.000   0.010   0.000  -0.010   0.006
  0.000  -0.011  -0.012  -0.000  -0.000   0.000  -0.010  -0.012
 -0.011   0.000  -0.000  -0.011  -0.000  -0.010   0.000  -0.000
 total augmentation occupancy for first ion, spin component:           1
  2.023  -0.042  -0.029   0.066  -0.017  -0.549   0.024   0.029  -0.065   0.011   0.015  -0.002   0.011  -0.004   0.023  -0.001
 -0.042   2.087   0.018   0.042  -0.031   0.024  -0.588  -0.015  -0.024   0.026  -0.043   0.028   0.029   0.029   0.000  -0.012
 -0.029   0.018   2.778  -0.030  -0.016   0.029  -0.015  -1.068   0.024   0.009  -0.007   0.002   0.031  -0.066   0.011   0.002
  0.066   0.042  -0.030   2.023  -0.016  -0.065  -0.024   0.024  -0.549   0.020  -0.015   0.002   0.004  -0.011   0.023  -0.000
 -0.017  -0.031  -0.016  -0.016   2.796   0.011   0.026   0.009   0.020  -1.078   0.012  -0.003   0.058   0.003   0.006   0.005
 -0.549   0.024   0.029  -0.065   0.011   0.854  -0.015  -0.026   0.069  -0.007  -0.007   0.001  -0.006   0.002   0.003   0.000
  0.024  -0.588  -0.015  -0.024   0.026  -0.015   0.878   0.018   0.015  -0.030   0.029  -0.018   0.000   0.000  -0.000   0.002
  0.029  -0.015  -1.068   0.024   0.009  -0.026   0.018   1.122  -0.019  -0.001   0.007  -0.002  -0.029   0.062  -0.007   0.004
 -0.065  -0.024   0.024  -0.549   0.020   0.069   0.015  -0.019   0.854  -0.019   0.007  -0.001  -0.002   0.006   0.003   0.000
  0.011   0.026   0.009   0.020  -1.078  -0.007  -0.030  -0.001  -0.019   1.123  -0.013   0.003  -0.054  -0.002  -0.004   0.006
  0.015  -0.043  -0.007  -0.015   0.012  -0.007   0.029   0.007   0.007  -0.013   2.124  -0.280   0.051   0.051   0.000  -0.006
 -0.002   0.028   0.002   0.002  -0.003   0.001  -0.018  -0.002  -0.001   0.003  -0.280   0.047   0.001   0.001   0.000  -0.000
  0.011   0.029   0.031   0.004   0.058  -0.006   0.000  -0.029  -0.002  -0.054   0.051   0.001   0.257  -0.002  -0.001  -0.027
 -0.004   0.029  -0.066  -0.011   0.003   0.002   0.000   0.062   0.006  -0.002   0.051   0.001  -0.002   0.257   0.001  -0.002
  0.023  -0.000   0.011   0.023   0.006   0.003  -0.000  -0.007   0.003  -0.004   0.000  -0.000  -0.001   0.001   0.255   0.000
 -0.001  -0.012   0.002  -0.000   0.005   0.000   0.002   0.004   0.000   0.006  -0.006  -0.000  -0.027  -0.002   0.000   0.003
  0.000  -0.012  -0.005   0.001   0.001  -0.000   0.002  -0.007  -0.000  -0.000  -0.006  -0.000  -0.002  -0.027  -0.000   0.000
 -0.011   0.000   0.000  -0.011   0.000   0.001   0.000  -0.000   0.001  -0.000   0.000   0.000   0.000  -0.000  -0.026  -0.000
 total augmentation occupancy for first ion, spin component:           2
  0.351  -0.165  -0.334   0.073   0.002  -0.219   0.157   0.178  -0.084  -0.002  -0.091   0.004   0.010   0.001  -0.048  -0.000
 -0.165   0.323   0.090   0.165  -0.156   0.157  -0.194  -0.048  -0.157   0.083  -0.071   0.001  -0.040  -0.040  -0.000   0.001
 -0.334   0.090   0.529  -0.166  -0.021   0.178  -0.047  -0.262   0.088   0.012   0.011   0.002  -0.008   0.016  -0.010   0.000
  0.073   0.165  -0.166   0.351  -0.290  -0.084  -0.157   0.087  -0.219   0.155   0.091  -0.004  -0.001  -0.010  -0.048  -0.001
  0.002  -0.156  -0.021  -0.290   0.554  -0.002   0.081   0.012   0.155  -0.276  -0.020  -0.003  -0.014  -0.000  -0.006   0.002
 -0.219   0.157   0.178  -0.084  -0.002   0.113  -0.137  -0.075   0.083   0.001   0.059  -0.012  -0.008  -0.001   0.032   0.001
  0.157  -0.194  -0.047  -0.157   0.081  -0.137   0.093   0.019   0.137  -0.033   0.049  -0.008   0.025   0.025   0.000  -0.002
  0.178  -0.048  -0.262   0.087   0.012  -0.075   0.019   0.086  -0.036  -0.005  -0.008  -0.000   0.008  -0.018   0.007  -0.000
 -0.084  -0.157   0.088  -0.219   0.155   0.083   0.137  -0.036   0.113  -0.066  -0.059   0.012   0.001   0.008   0.032   0.001
 -0.002   0.083   0.012   0.155  -0.276   0.001  -0.033  -0.005  -0.066   0.093   0.014   0.000   0.016   0.001   0.004  -0.001
 -0.091  -0.071   0.011   0.091  -0.020   0.059   0.049  -0.008  -0.059   0.014  -0.045   0.009  -0.002  -0.002   0.000  -0.001
  0.004   0.001   0.002  -0.004  -0.003  -0.012  -0.008  -0.000   0.012   0.000   0.009  -0.002  -0.002  -0.002   0.000   0.000
  0.010  -0.040  -0.008  -0.001  -0.014  -0.008   0.025   0.008   0.001   0.016  -0.002  -0.002  -0.003   0.009   0.013   0.000
  0.001  -0.040   0.016  -0.010  -0.000  -0.001   0.025  -0.018   0.008   0.001  -0.002  -0.002   0.009  -0.003  -0.013  -0.001
 -0.048  -0.000  -0.010  -0.048  -0.006   0.032   0.000   0.007   0.032   0.004   0.000  -0.000   0.013  -0.013   0.002  -0.002
 -0.000   0.001   0.000  -0.001   0.002   0.001  -0.002  -0.000   0.001  -0.001  -0.001   0.000   0.000  -0.001  -0.002   0.000
  0.001   0.001  -0.002   0.000   0.001  -0.001  -0.002   0.001  -0.001  -0.000  -0.001   0.000  -0.001   0.000   0.002   0.000
  0.001   0.000   0.002   0.001   0.001  -0.003  -0.000  -0.001  -0.003  -0.001   0.000   0.000  -0.002   0.002  -0.000   0.000


------------------------ aborting loop because EDIFF is reached ----------------------------------------





 total charge     

# of ion       s       p       d       tot
------------------------------------------
    1        0.476   0.423   8.386   9.285
    2        0.475   0.421   8.375   9.271
    3        0.474   0.425   8.373   9.272
    4        0.475   0.422   8.379   9.276
    5        0.475   0.422   8.379   9.276
    6        0.474   0.425   8.373   9.272
    7        0.475   0.421   8.375   9.271
    8        0.476   0.423   8.386   9.285
    9        0.324   0.311   4.946   5.581
   10        0.327   0.317   4.898   5.542
   11        0.331   0.324   4.894   5.549
   12        0.337   0.331   4.907   5.575
   13        0.353   0.362   4.966   5.681
   14        0.353   0.357   4.979   5.689
   15        1.234   1.671   0.288   3.193
   16        1.239   1.666   0.292   3.197
--------------------------------------------------
tot          8.297   8.722  97.195 114.214



 magnetization (x)

# of ion       s       p       d       tot
------------------------------------------
    1       -0.007  -0.003   0.261   0.251
    2       -0.008  -0.004   0.247   0.235
    3       -0.006   0.002   0.276   0.273
    4       -0.007  -0.005   0.236   0.224
    5       -0.007  -0.005   0.236   0.224
    6       -0.006   0.002   0.276   0.273
    7       -0.008  -0.004   0.247   0.235
    8       -0.007  -0.003   0.261   0.251
    9        0.026   0.042   3.545   3.612
   10       -0.034  -0.061  -3.443  -3.538
   11        0.027   0.033   3.575   3.635
   12       -0.032  -0.064  -3.510  -3.606
   13        0.022   0.034   3.305   3.360
   14        0.025   0.012   3.300   3.336
   15       -0.002   0.054  -0.006   0.047
   16       -0.015  -0.015   0.003  -0.027
--------------------------------------------------
tot         -0.040   0.014   8.810   8.784

    CHARGE:  cpu time    0.6754: real time    0.6758
    FORLOC:  cpu time    0.0066: real time    0.0066
    FORNL :  cpu time    4.8945: real time    4.8982
    STRESS:  cpu time   14.7333: real time   14.7443
    FORCOR:  cpu time    0.0997: real time    0.0998
    FORHAR:  cpu time    0.0161: real time    0.0162
    MIXING:  cpu time    0.0032: real time    0.0032
    OFIELD:  cpu time    0.0000: real time    0.0000

  FORCE on cell =-STRESS in cart. coord.  units (eV):
  Direction    XX          YY          ZZ          XY          YZ          ZX
  --------------------------------------------------------------------------------------
  Alpha Z   530.41185   530.41185   530.41185
  Ewald   -2819.73488 -3186.57713 -3186.57713     0.00000    -0.00000    -0.00000
  Hartree  1241.77726   892.81867   892.81867    -0.00000    -0.00000    -0.00000
  E(xc)    -670.04112  -670.28252  -670.28252    -0.00000     0.00000     0.00000
  Local    -776.10639   -63.09657   -63.09657     0.00000    -0.00000     0.00000
  n-local  -147.71945  -148.44323  -145.24900     0.20039    -0.34890    -0.84778
  augment  1578.72357  1579.68781  1579.68781     0.00000    -0.00000     0.00000
  Kinetic  1060.57945  1054.06711  1071.33057     1.34100     0.92573     0.45488
  Fock        0.00000     0.00000     0.00000     0.00000     0.00000     0.00000
  -------------------------------------------------------------------------------------
  Total      -2.10971    -1.18516    -1.18516     0.00000     0.00000     0.00000
  in kB     -15.93307    -8.95060    -8.95060     0.00000     0.00000     0.00000
  external pressure =      -11.28 kB  Pullay stress =        0.00 kB


 VOLUME and BASIS-vectors are now :
 -----------------------------------------------------------------------------
  energy-cutoff  :      550.00
  volume of cell :      212.15
      direct lattice vectors                 reciprocal lattice vectors
     5.964097189  0.000000000  0.000000000     0.167669971  0.000000000  0.000000000
     0.000000000  5.964097189  0.000000000     0.000000000  0.167669971  0.000000000
     0.000000000  0.000000000  5.964097189     0.000000000  0.000000000  0.167669971

  length of vectors
     5.964097189  5.964097189  5.964097189     0.167669971  0.167669971  0.167669971


 FORCES acting on ions
    electron-ion (+dipol)            ewald-force                    non-local-force                 convergence-correction
 -----------------------------------------------------------------------------------------------
   -.106E-06 0.159E+03 0.159E+03   0.426E-13 -.157E+03 -.157E+03   0.000E+00 -.229E+01 -.229E+01   -.759E-14 -.196E-02 -.196E-02
   0.106E-06 0.159E+03 0.159E+03   0.426E-13 -.157E+03 -.157E+03   -.347E-17 -.229E+01 -.229E+01   0.108E-12 -.196E-02 -.196E-02
   0.174E-06 -.159E+03 0.159E+03   0.000E+00 0.157E+03 -.157E+03   0.208E-16 0.229E+01 -.229E+01   -.356E-13 0.196E-02 -.196E-02
   -.174E-06 -.159E+03 0.159E+03   0.000E+00 0.157E+03 -.157E+03   -.434E-17 0.229E+01 -.229E+01   0.109E-12 0.196E-02 -.196E-02
   0.174E-06 0.159E+03 -.159E+03   0.284E-13 -.157E+03 0.157E+03   -.954E-17 -.229E+01 0.229E+01   -.612E-13 -.196E-02 0.196E-02
   -.174E-06 0.159E+03 -.159E+03   0.426E-13 -.157E+03 0.157E+03   -.694E-17 -.229E+01 0.229E+01   0.933E-13 -.196E-02 0.196E-02
   -.106E-06 -.159E+03 -.159E+03   -.284E-13 0.157E+03 0.157E+03   0.347E-17 0.229E+01 0.229E+01   -.942E-13 0.196E-02 0.196E-02
   0.106E-06 -.159E+03 -.159E+03   -.284E-13 0.157E+03 0.157E+03   -.694E-17 0.229E+01 0.229E+01   0.794E-13 0.196E-02 0.196E-02
   0.226E-12 0.151E-11 0.127E-11   0.114E-12 -.580E-13 0.693E-13   0.000E+00 0.000E+00 0.000E+00   -.251E-13 -.766E-13 0.329E-13
   -.627E-13 0.232E-12 -.382E-13   0.117E-12 -.122E-14 0.694E-13   0.000E+00 0.000E+00 0.000E+00   0.454E-14 -.617E-13 0.354E-13
   -.545E-13 -.597E-13 0.202E-12   0.107E-12 -.319E-13 0.108E-13   0.000E+00 0.000E+00 0.000E+00   0.339E-13 0.513E-13 -.156E-13
   0.221E-12 -.574E-13 0.262E-11   0.102E-12 -.319E-13 -.460E-13   0.000E+00 0.000E+00 0.000E+00   -.446E-13 0.575E-13 -.562E-13
   0.213E-12 0.369E-12 0.116E-11   -.270E-12 0.104E-12 -.129E-13   0.000E+00 0.000E+00 0.000E+00   -.332E-13 -.434E-13 -.560E-13
   -.769E-13 0.230E-12 0.185E-12   -.267E-12 0.104E-12 0.440E-13   0.000E+00 0.000E+00 0.000E+00   0.229E-13 -.371E-13 -.364E-13
   -.147E-13 -.164E-13 -.265E-14   -.172E-14 -.166E-15 0.181E-13   0.000E+00 0.000E+00 0.000E+00   0.805E-14 0.191E-13 0.104E-13
   -.982E-14 0.292E-13 0.552E-12   0.587E-15 -.149E-15 0.383E-14   0.000E+00 0.000E+00 0.000E+00   -.913E-14 0.213E-13 0.139E-13
 -----------------------------------------------------------------------------------------------
   0.991E-11 0.434E-11 0.628E-11   0.409E-15 0.854E-13 0.128E-12   -.694E-17 0.000E+00 0.444E-15   0.149E-12 0.173E-12 -.478E-12


 POSITION                                       TOTAL-FORCE (eV/Angst)
 -----------------------------------------------------------------------------------
      1.49102      1.58649      1.58649        -0.000000      0.002401      0.002401
      4.47307      1.58649      1.58649         0.000000      0.002401      0.002401
      1.49102      4.37761      1.58649         0.000000     -0.002401      0.002401
      4.47307      4.37761      1.58649        -0.000000     -0.002401      0.002401
      1.49102      1.58649      4.37761         0.000000      0.002401     -0.002401
      4.47307      1.58649      4.37761         0.000000      0.002401     -0.002401
      1.49102      4.37761      4.37761         0.000000     -0.002401     -0.002401
      4.47307      4.37761      4.37761        -0.000000     -0.002401     -0.002401
      2.98205      2.98205      0.00000         0.000000      0.000000     -0.000000
      0.00000      2.98205      0.00000         0.000000      0.000000     -0.000000
      0.00000      0.00000      2.98205         0.000000      0.000000     -0.000000
      2.98205      0.00000      2.98205         0.000000      0.000000     -0.000000
      2.98205      2.98205      2.98205         0.000000      0.000000     -0.000000
      0.00000      2.98205      2.98205         0.000000      0.000000     -0.000000
      0.00000      0.00000      0.00000         0.000000      0.000000     -0.000000
      2.98205      0.00000      0.00000         0.000000      0.000000     -0.000000
 -----------------------------------------------------------------------------------
    total drift:                                0.000000      0.000000      0.000000


--------------------------------------------------------------------------------------------------------



  FREE ENERGIE OF THE ION-ELECTRON SYSTEM (eV)
  ---------------------------------------------------
  free  energy   TOTEN  =      -103.24034009 eV

  energy  without entropy=     -103.23929143  energy(sigma->0) =     -103.23981576



--------------------------------------------------------------------------------------------------------


    POTLOK:  cpu time    0.1334: real time    0.1335


--------------------------------------------------------------------------------------------------------




--------------------------------------------------------------------------------------------------------


  
 reached required accuracy - stopping structural energy minimisation
     LOOP+:  cpu time  364.4958: real time  364.9285
    4ORBIT:  cpu time    0.0000: real time    0.0000



 total charge     

# of ion       s       p       d       tot
------------------------------------------
    1        0.476   0.423   8.386   9.285
    2        0.475   0.421   8.375   9.271
    3        0.474   0.425   8.373   9.272
    4        0.475   0.422   8.379   9.276
    5        0.475   0.422   8.379   9.276
    6        0.474   0.425   8.373   9.272
    7        0.475   0.421   8.375   9.271
    8        0.476   0.423   8.386   9.285
    9        0.324   0.311   4.946   5.581
   10        0.327   0.317   4.898   5.542
   11        0.331   0.324   4.894   5.549
   12        0.337   0.331   4.907   5.575
   13        0.353   0.362   4.966   5.681
   14        0.353   0.357   4.979   5.689
   15        1.234   1.671   0.288   3.193
   16        1.239   1.666   0.292   3.197
--------------------------------------------------
tot          8.297   8.722  97.195 114.214



 magnetization (x)

# of ion       s       p       d       tot
------------------------------------------
    1       -0.007  -0.003   0.261   0.251
    2       -0.008  -0.004   0.247   0.235
    3       -0.006   0.002   0.276   0.273
    4       -0.007  -0.005   0.236   0.224
    5       -0.007  -0.005   0.236   0.224
    6       -0.006   0.002   0.276   0.273
    7       -0.008  -0.004   0.247   0.235
    8       -0.007  -0.003   0.261   0.251
    9        0.026   0.042   3.545   3.612
   10       -0.034  -0.061  -3.443  -3.538
   11        0.027   0.033   3.575   3.635
   12       -0.032  -0.064  -3.510  -3.606
   13        0.022   0.034   3.305   3.360
   14        0.025   0.012   3.300   3.336
   15       -0.002   0.054  -0.006   0.047
   16       -0.015  -0.015   0.003  -0.027
--------------------------------------------------
tot         -0.040   0.014   8.810   8.784


 total amount of memory used by VASP MPI-rank0   103632. kBytes
=======================================================================

   base      :      30000. kBytes
   nonlr-proj:       6803. kBytes
   fftplans  :       1269. kBytes
   grid      :       6573. kBytes
   one-center:        497. kBytes
   wavefun   :      58490. kBytes

  
  
 General timing and accounting informations for this job:
 ========================================================
  
                  Total CPU time used (sec):      375.024
                            User time (sec):      355.470
                          System time (sec):       19.554
                         Elapsed time (sec):      376.662
  
                   Maximum memory used (kb):      137580.
                   Average memory used (kb):           0.
  
                          Minor page faults:      7160967
                          Major page faults:           17
                 Voluntary context switches:         2564
