 vasp.5.4.4.18Apr17-6-g9f103f2a35 (build May 21 2018 20:56:50) complex           
 executed on             LinuxGNU date 2021.10.15  15:49:47
 running on   12 total cores
 distrk:  each k-point on   12 cores,    1 groups
 distr:  one band on NCORES_PER_BAND=   1 cores,   12 groups


--------------------------------------------------------------------------------------------------------


 INCAR:
 POTCAR:    PAW_PBE Ni 02Aug2007                  
 POTCAR:    PAW_PBE Mn 06Sep2000                  
 POTCAR:    PAW_PBE In 08Apr2002                  

 ----------------------------------------------------------------------------- 
|                                                                             |
|           W    W    AA    RRRRR   N    N  II  N    N   GGGG   !!!           |
|           W    W   A  A   R    R  NN   N  II  NN   N  G    G  !!!           |
|           W    W  A    A  R    R  N N  N  II  N N  N  G       !!!           |
|           W WW W  AAAAAA  RRRRR   N  N N  II  N  N N  G  GGG   !            |
|           WW  WW  A    A  R   R   N   NN  II  N   NN  G    G                |
|           W    W  A    A  R    R  N    N  II  N    N   GGGG   !!!           |
|                                                                             |
|      For optimal performance we recommend to set                            |
|        NCORE= 4 - approx SQRT( number of cores)                             |
|      NCORE specifies how many cores store one orbital (NPAR=cpu/NCORE).     |
|      This setting can  greatly improve the performance of VASP for DFT.     |
|      The default,   NCORE=1            might be grossly inefficient         |
|      on modern multi-core architectures or massively parallel machines.     |
|      Do your own testing !!!!                                               |
|      Unfortunately you need to use the default for GW and RPA calculations. |
|      (for HF NCORE is supported but not extensively tested yet)             |
|                                                                             |
 ----------------------------------------------------------------------------- 

 POTCAR:    PAW_PBE Ni 02Aug2007                  
   VRHFIN =Ni:                                                                  
   LEXCH  = PE                                                                  
   EATOM  =  1077.6739 eV,   79.2068 Ry                                         
                                                                                
   TITEL  = PAW_PBE Ni 02Aug2007                                                
   LULTRA =        F    use ultrasoft PP ?                                      
   IUNSCR =        1    unscreen: 0-lin 1-nonlin 2-no                           
   RPACOR =    2.000    partial core radius                                     
   POMASS =   58.690; ZVAL   =   10.000    mass and valenz                      
   RCORE  =    2.300    outmost cutoff radius                                   
   RWIGS  =    2.430; RWIGS  =    1.286    wigner-seitz radius (au A)           
   ENMAX  =  269.532; ENMIN  =  202.149 eV                                      
   RCLOC  =    1.201    cutoff for local pot                                    
   LCOR   =        T    correct aug charges                                     
   LPAW   =        T    paw PP                                                  
   EAUG   =  544.565                                                            
   DEXC   =    0.000                                                            
   RMAX   =    2.357    core radius for proj-oper                               
   RAUG   =    1.300    factor for augmentation sphere                          
   RDEP   =    2.390    radius for radial grids                                 
   RDEPT  =    1.838    core radius for aug-charge                              
                                                                                
   Atomic configuration                                                         
    9 entries                                                                   
     n  l   j            E        occ.                                          
     1  0  0.50     -8206.4253   2.0000                                         
     2  0  0.50      -976.1748   2.0000                                         
     2  1  1.50      -839.0571   6.0000                                         
     3  0  0.50      -105.9991   2.0000                                         
     3  1  1.50       -66.4603   6.0000                                         
     3  2  2.50        -4.6458   9.0000                                         
     4  0  0.50        -4.4926   1.0000                                         
     4  1  1.50        -4.0817   0.0000                                         
     4  3  2.50        -1.3606   0.0000                                         
   Description                                                                  
     l       E           TYP  RCUT    TYP  RCUT                                 
     2     -4.6457903     23  2.300                                             
     2     -6.0063729     23  2.300                                             
     0     -4.4925590     23  2.300                                             
     0      5.0102601     23  2.300                                             
     1     -2.7211652     23  2.300                                             
     1     16.5183231     23  2.300                                             
  local pseudopotential read in
  partial core-charges read in
  partial kinetic energy density read in
  atomic valenz-charges read in
  non local Contribution for L=           2  read in
    real space projection operators read in
  non local Contribution for L=           2  read in
    real space projection operators read in
  non local Contribution for L=           0  read in
    real space projection operators read in
  non local Contribution for L=           0  read in
    real space projection operators read in
  non local Contribution for L=           1  read in
    real space projection operators read in
  non local Contribution for L=           1  read in
    real space projection operators read in
    PAW grid and wavefunctions read in

   number of l-projection  operators is LMAX  =           6
   number of lm-projection operators is LMMAX =          18

 POTCAR:    PAW_PBE Mn 06Sep2000                  
   VRHFIN =Mn: d6 s1                                                            
   LEXCH  = PE                                                                  
   EATOM  =   416.7541 eV,   30.6306 Ry                                         
                                                                                
   TITEL  = PAW_PBE Mn 06Sep2000                                                
   LULTRA =        F    use ultrasoft PP ?                                      
   IUNSCR =        1    unscreen: 0-lin 1-nonlin 2-no                           
   RPACOR =    2.000    partial core radius                                     
   POMASS =   54.938; ZVAL   =    7.000    mass and valenz                      
   RCORE  =    2.300    outmost cutoff radius                                   
   RWIGS  =    2.500; RWIGS  =    1.323    wigner-seitz radius (au A)           
   ENMAX  =  269.864; ENMIN  =  202.398 eV                                      
   RCLOC  =    1.725    cutoff for local pot                                    
   LCOR   =        T    correct aug charges                                     
   LPAW   =        T    paw PP                                                  
   EAUG   =  500.711                                                            
   DEXC   =    0.000                                                            
   RMAX   =    2.343    core radius for proj-oper                               
   RAUG   =    1.300    factor for augmentation sphere                          
   RDEP   =    2.338    radius for radial grids                                 
   RDEPT  =    1.911    core radius for aug-charge                              
                                                                                
   Atomic configuration                                                         
    9 entries                                                                   
     n  l   j            E        occ.                                          
     1  0  0.50     -6424.8288   2.0000                                         
     2  0  0.50      -739.1154   2.0000                                         
     2  1  1.50      -625.3949   6.0000                                         
     3  0  0.50       -81.6100   2.0000                                         
     3  1  1.50       -50.4667   6.0000                                         
     3  2  2.50        -3.3745   6.0000                                         
     4  0  0.50        -4.1331   1.0000                                         
     4  1  0.50        -4.0817   0.0000                                         
     4  3  2.50        -1.3606   0.0000                                         
   Description                                                                  
     l       E           TYP  RCUT    TYP  RCUT                                 
     2     -3.3744664     23  2.300                                             
     2     -4.7350490     23  2.300                                             
     0     -4.1331408     23  2.300                                             
     0      7.6656614     23  2.300                                             
     1     -2.7211652     23  2.300                                             
     1     20.4087390     23  2.300                                             
  local pseudopotential read in
  partial core-charges read in
  partial kinetic energy density read in
  atomic valenz-charges read in
  non local Contribution for L=           2  read in
    real space projection operators read in
  non local Contribution for L=           2  read in
    real space projection operators read in
  non local Contribution for L=           0  read in
    real space projection operators read in
  non local Contribution for L=           0  read in
    real space projection operators read in
  non local Contribution for L=           1  read in
    real space projection operators read in
  non local Contribution for L=           1  read in
    real space projection operators read in
    PAW grid and wavefunctions read in

   number of l-projection  operators is LMAX  =           6
   number of lm-projection operators is LMMAX =          18

 POTCAR:    PAW_PBE In 08Apr2002                  
   VRHFIN =In: s2p1                                                             
   LEXCH  = PE                                                                  
   EATOM  =    53.7908 eV,    3.9535 Ry                                         
                                                                                
   TITEL  = PAW_PBE In 08Apr2002                                                
   LULTRA =        F    use ultrasoft PP ?                                      
   IUNSCR =        1    unscreen: 0-lin 1-nonlin 2-no                           
   RPACOR =    2.400    partial core radius                                     
   POMASS =  114.820; ZVAL   =    3.000    mass and valenz                      
   RCORE  =    3.100    outmost cutoff radius                                   
   RWIGS  =    3.170; RWIGS  =    1.677    wigner-seitz radius (au A)           
   ENMAX  =   95.934; ENMIN  =   71.951 eV                                      
   ICORE  =        3    local potential                                         
   LCOR   =        T    correct aug charges                                     
   LPAW   =        T    paw PP                                                  
   EAUG   =  237.125                                                            
   DEXC   =    0.000                                                            
   RMAX   =    3.168    core radius for proj-oper                               
   RAUG   =    1.300    factor for augmentation sphere                          
   RDEP   =    3.187    radius for radial grids                                 
   RDEPT  =    2.711    core radius for aug-charge                              
                                                                                
   Atomic configuration                                                         
   13 entries                                                                   
     n  l   j            E        occ.                                          
     1  0  0.50    -27747.9169   2.0000                                         
     2  0  0.50     -4154.4438   2.0000                                         
     2  1  1.50     -3728.4305   6.0000                                         
     3  0  0.50      -788.3680   2.0000                                         
     3  1  1.50      -648.9215   6.0000                                         
     3  2  2.50      -432.5893  10.0000                                         
     4  0  0.50      -119.6363   2.0000                                         
     4  1  1.50       -78.1086   6.0000                                         
     4  2  2.50       -18.6227  10.0000                                         
     5  0  0.50        -8.2107   2.0000                                         
     5  1  0.50        -2.5185   1.0000                                         
     5  2  2.50        -1.3606   0.0000                                         
     4  3  2.50        -2.7212   0.0000                                         
   Description                                                                  
     l       E           TYP  RCUT    TYP  RCUT                                 
     0     -8.2107306     23  3.100                                             
     0     -6.1485975     23  3.100                                             
     1     -2.5184867     23  3.100                                             
     1      3.2427302     23  3.100                                             
     2     -1.3605826     23  3.100                                             
     3     -1.3605826     23  3.100                                             
  local pseudopotential read in
  partial core-charges read in
  partial kinetic energy density read in
  atomic valenz-charges read in
  non local Contribution for L=           0  read in
    real space projection operators read in
  non local Contribution for L=           0  read in
    real space projection operators read in
  non local Contribution for L=           1  read in
    real space projection operators read in
  non local Contribution for L=           1  read in
    real space projection operators read in
  non local Contribution for L=           2  read in
    real space projection operators read in
    PAW grid and wavefunctions read in

   number of l-projection  operators is LMAX  =           5
   number of lm-projection operators is LMMAX =          13

 Optimization of the real space projectors (new method)

 maximal supplied QI-value         = 16.25
 optimisation between [QCUT,QGAM] = [ 11.86, 23.89] = [ 39.41,159.82] Ry 
 Optimized for a Real-space Cutoff    1.33 Angstroem

   l    n(q)    QCUT    max X(q) W(low)/X(q) W(high)/X(q)  e(spline) 
   2      9    11.864    60.317    0.21E-03    0.51E-03    0.25E-06
   2      9    11.864    55.921    0.21E-03    0.51E-03    0.26E-06
   0      9    11.864    51.690    0.22E-03    0.30E-04    0.17E-06
   0      9    11.864    30.015    0.20E-03    0.28E-04    0.15E-06
   1      9    11.864    18.849    0.76E-04    0.33E-03    0.17E-06
   1      9    11.864    14.624    0.60E-04    0.28E-03    0.15E-06
 Optimization of the real space projectors (new method)

 maximal supplied QI-value         = 16.25
 optimisation between [QCUT,QGAM] = [ 11.86, 23.89] = [ 39.41,159.82] Ry 
 Optimized for a Real-space Cutoff    1.36 Angstroem

   l    n(q)    QCUT    max X(q) W(low)/X(q) W(high)/X(q)  e(spline) 
   2      9    11.864   110.144    0.49E-03    0.50E-03    0.21E-06
   2      9    11.864   103.200    0.49E-03    0.51E-03    0.22E-06
   0     10    11.864    68.437    0.12E-03    0.41E-04    0.21E-06
   0     10    11.864    33.971    0.11E-03    0.36E-04    0.19E-06
   1      9    11.864    17.065    0.24E-03    0.26E-03    0.93E-07
   1      9    11.864    12.540    0.19E-03    0.20E-03    0.80E-07
 Optimization of the real space projectors (new method)

 maximal supplied QI-value         = 12.09
 optimisation between [QCUT,QGAM] = [ 11.97, 23.95] = [ 40.14,160.58] Ry 
 Optimized for a Real-space Cutoff    1.63 Angstroem

   l    n(q)    QCUT    max X(q) W(low)/X(q) W(high)/X(q)  e(spline) 
   0     12    11.973   106.980    0.33E-03    0.16E-03    0.25E-05
   0     12    11.973    81.086    0.37E-03    0.18E-03    0.28E-05
   1     11    11.973    53.097    0.22E-03    0.42E-03    0.40E-05
   1     11    11.973    32.621    0.20E-03    0.40E-03    0.37E-05
   2     11    11.973     8.820    0.30E-03    0.17E-03    0.41E-06
  PAW_PBE Ni 02Aug2007                  :
 energy of atom  1       EATOM=-1077.6739
 kinetic energy error for atom=    0.0027 (will be added to EATOM!!)
  PAW_PBE Mn 06Sep2000                  :
 energy of atom  2       EATOM= -416.7541
 kinetic energy error for atom=    0.0022 (will be added to EATOM!!)
  PAW_PBE In 08Apr2002                  :
 energy of atom  3       EATOM=  -53.7908
 kinetic energy error for atom=    0.0000 (will be added to EATOM!!)


 POSCAR: Ni2MnIn                                 
  positions in direct lattice
  velocities in cartesian coordinates
 exchange correlation table for  LEXCH =        8
   RHO(1)=    0.500       N(1)  =     2000
   RHO(2)=  100.500       N(2)  =     4000



--------------------------------------------------------------------------------------------------------


 ion  position               nearest neighbor table
   1  0.250  0.250  0.250-   9 2.58  10 2.58  11 2.58  12 2.58  13 2.58  14 2.58  15 2.58  16 2.58
                             5 2.98   2 2.98   3 2.98   5 2.98   3 2.98   2 2.98
   2  0.750  0.250  0.250-   9 2.58  10 2.58  11 2.58  12 2.58  13 2.58  14 2.58  15 2.58  16 2.58
                             6 2.98   1 2.98   4 2.98   6 2.98   4 2.98   1 2.98
   3  0.250  0.750  0.250-   9 2.58  10 2.58  11 2.58  12 2.58  13 2.58  14 2.58  15 2.58  16 2.58
                             7 2.98   1 2.98   4 2.98   7 2.98   1 2.98   4 2.98
   4  0.750  0.750  0.250-   9 2.58  10 2.58  11 2.58  12 2.58  13 2.58  14 2.58  15 2.58  16 2.58
                             8 2.98   2 2.98   3 2.98   8 2.98   2 2.98   3 2.98
   5  0.250  0.250  0.750-   9 2.58  10 2.58  11 2.58  12 2.58  13 2.58  14 2.58  15 2.58  16 2.58
                             7 2.98   1 2.98   6 2.98   1 2.98   7 2.98   6 2.98
   6  0.750  0.250  0.750-   9 2.58  10 2.58  11 2.58  12 2.58  13 2.58  14 2.58  15 2.58  16 2.58
                             8 2.98   2 2.98   5 2.98   2 2.98   8 2.98   5 2.98
   7  0.250  0.750  0.750-   9 2.58  10 2.58  11 2.58  12 2.58  13 2.58  14 2.58  15 2.58  16 2.58
                             8 2.98   3 2.98   5 2.98   3 2.98   5 2.98   8 2.98
   8  0.750  0.750  0.750-   9 2.58  10 2.58  11 2.58  12 2.58  13 2.58  14 2.58  15 2.58  16 2.58
                             7 2.98   4 2.98   6 2.98   4 2.98   6 2.98   7 2.98
   9  0.500  0.000  0.000-   1 2.58   2 2.58   3 2.58   4 2.58   5 2.58   6 2.58   7 2.58   8 2.58
                            10 2.98  13 2.98  15 2.98  13 2.98  10 2.98  15 2.98
  10  0.500  0.500  0.000-   1 2.58   2 2.58   3 2.58   4 2.58   5 2.58   6 2.58   7 2.58   8 2.58
                             9 2.98  11 2.98  16 2.98  16 2.98   9 2.98  11 2.98
  11  0.000  0.500  0.000-   1 2.58   2 2.58   3 2.58   4 2.58   5 2.58   6 2.58   7 2.58   8 2.58
                            10 2.98  14 2.98  15 2.98  14 2.98  15 2.98  10 2.98
  12  0.000  0.000  0.500-   1 2.58   2 2.58   3 2.58   4 2.58   5 2.58   6 2.58   7 2.58   8 2.58
                            13 2.98  14 2.98  15 2.98  15 2.98  14 2.98  13 2.98
  13  0.500  0.000  0.500-   1 2.58   2 2.58   3 2.58   4 2.58   5 2.58   6 2.58   7 2.58   8 2.58
                             9 2.98  12 2.98  16 2.98   9 2.98  16 2.98  12 2.98
  14  0.000  0.500  0.500-   1 2.58   2 2.58   3 2.58   4 2.58   5 2.58   6 2.58   7 2.58   8 2.58
                            11 2.98  12 2.98  16 2.98  11 2.98  12 2.98  16 2.98
  15  0.000  0.000  0.000-   1 2.58   2 2.58   3 2.58   4 2.58   5 2.58   6 2.58   7 2.58   8 2.58
                             9 2.98  11 2.98  12 2.98  12 2.98  11 2.98   9 2.98
  16  0.500  0.500  0.500-   1 2.58   2 2.58   3 2.58   4 2.58   5 2.58   6 2.58   7 2.58   8 2.58
                            10 2.98  13 2.98  14 2.98  10 2.98  13 2.98  14 2.98

  LATTYP: Found a simple cubic cell.
 ALAT       =     5.9674546387
  
  Lattice vectors:
  
 A1 = (   5.9674546387,   0.0000000000,   0.0000000000)
 A2 = (   0.0000000000,   5.9674546387,   0.0000000000)
 A3 = (   0.0000000000,   0.0000000000,   5.9674546387)


Analysis of symmetry for initial positions (statically):
=====================================================================
 Subroutine PRICEL returns following result:
 
  LATTYP: Found a body centered cubic cell.
 ALAT       =     5.9674546387
  
  Lattice vectors:
  
 A1 = (   2.9837273194,   2.9837273194,   2.9837273194)
 A2 = (   2.9837273194,  -2.9837273194,  -2.9837273194)
 A3 = (  -2.9837273194,   2.9837273194,  -2.9837273194)
 
   2 primitive cells build up your supercell.
 

 Routine SETGRP: Setting up the symmetry group for a 
 simple cubic supercell.


 Subroutine GETGRP returns: Found 48 space group operations
 (whereof 48 operations were pure point group operations)
 out of a pool of 48 trial point group operations.


The static configuration has the point symmetry O_h .


Analysis of symmetry for dynamics (positions and initial velocities):
=====================================================================
 Subroutine PRICEL returns following result:
 
  LATTYP: Found a body centered cubic cell.
 ALAT       =     5.9674546387
  
  Lattice vectors:
  
 A1 = (   2.9837273194,   2.9837273194,   2.9837273194)
 A2 = (   2.9837273194,  -2.9837273194,  -2.9837273194)
 A3 = (  -2.9837273194,   2.9837273194,  -2.9837273194)
 
   2 primitive cells build up your supercell.
 

 Routine SETGRP: Setting up the symmetry group for a 
 simple cubic supercell.


 Subroutine GETGRP returns: Found 48 space group operations
 (whereof 48 operations were pure point group operations)
 out of a pool of 48 trial point group operations.


The dynamic configuration has the point symmetry O_h .


Analysis of structural, dynamic, and magnetic symmetry:
=====================================================================
 Subroutine PRICEL returns:
 Original cell was already a primitive cell.
 

 Routine SETGRP: Setting up the symmetry group for a 
 simple cubic supercell.


 Subroutine GETGRP returns: Found 16 space group operations
 (whereof 16 operations were pure point group operations)
 out of a pool of 48 trial point group operations.


The magnetic configuration has the point symmetry D_4h.


 Subroutine INISYM returns: Found 16 space group operations
 (whereof 16 operations are pure point group operations),
 and found     1 'primitive' translations



 KPOINTS: k-points                                

Automatic generation of k-mesh.
Space group operators:
 irot       det(A)        alpha          n_x          n_y          n_z        tau_x        tau_y        tau_z
    1     1.000000     0.000000     1.000000     0.000000     0.000000     0.000000     0.000000     0.000000
    2    -1.000000     0.000000     1.000000     0.000000     0.000000     0.000000     0.000000     0.000000
    3     1.000000    90.000000     0.000000     0.000000    -1.000000     0.000000     0.000000     0.000000
    4    -1.000000    90.000000     0.000000     0.000000    -1.000000     0.000000     0.000000     0.000000
    5     1.000000   180.000000     0.000000     0.000000     1.000000     0.000000     0.000000     0.000000
    6    -1.000000   180.000000     0.000000     0.000000     1.000000     0.000000     0.000000     0.000000
    7     1.000000    90.000000     0.000000     0.000000     1.000000     0.000000     0.000000     0.000000
    8    -1.000000    90.000000     0.000000     0.000000     1.000000     0.000000     0.000000     0.000000
    9     1.000000   180.000000     1.000000     0.000000     0.000000     0.000000     0.000000     0.000000
   10    -1.000000   180.000000     1.000000     0.000000     0.000000     0.000000     0.000000     0.000000
   11     1.000000   180.000000     0.707107     0.707107     0.000000     0.000000     0.000000     0.000000
   12    -1.000000   180.000000     0.707107     0.707107     0.000000     0.000000     0.000000     0.000000
   13     1.000000   180.000000     0.000000     1.000000     0.000000     0.000000     0.000000     0.000000
   14    -1.000000   180.000000     0.000000     1.000000     0.000000     0.000000     0.000000     0.000000
   15     1.000000   180.000000     0.707107    -0.707107     0.000000     0.000000     0.000000     0.000000
   16    -1.000000   180.000000     0.707107    -0.707107     0.000000     0.000000     0.000000     0.000000
 
 Subroutine IBZKPT returns following result:
 ===========================================
 
 Found     40 irreducible k-points:
 
 Following reciprocal coordinates:
            Coordinates               Weight
  0.000000  0.000000  0.000000      1.000000
  0.142857  0.000000  0.000000      4.000000
  0.285714  0.000000  0.000000      4.000000
  0.428571  0.000000  0.000000      4.000000
  0.142857  0.142857  0.000000      4.000000
  0.285714  0.142857  0.000000      8.000000
  0.428571  0.142857  0.000000      8.000000
  0.285714  0.285714  0.000000      4.000000
  0.428571  0.285714  0.000000      8.000000
  0.428571  0.428571  0.000000      4.000000
  0.000000  0.000000  0.142857      2.000000
  0.142857  0.000000  0.142857      8.000000
  0.285714  0.000000  0.142857      8.000000
  0.428571  0.000000  0.142857      8.000000
  0.142857  0.142857  0.142857      8.000000
  0.285714  0.142857  0.142857     16.000000
  0.428571  0.142857  0.142857     16.000000
  0.285714  0.285714  0.142857      8.000000
  0.428571  0.285714  0.142857     16.000000
  0.428571  0.428571  0.142857      8.000000
  0.000000  0.000000  0.285714      2.000000
  0.142857  0.000000  0.285714      8.000000
  0.285714  0.000000  0.285714      8.000000
  0.428571  0.000000  0.285714      8.000000
  0.142857  0.142857  0.285714      8.000000
  0.285714  0.142857  0.285714     16.000000
  0.428571  0.142857  0.285714     16.000000
  0.285714  0.285714  0.285714      8.000000
  0.428571  0.285714  0.285714     16.000000
  0.428571  0.428571  0.285714      8.000000
  0.000000  0.000000  0.428571      2.000000
  0.142857  0.000000  0.428571      8.000000
  0.285714  0.000000  0.428571      8.000000
  0.428571  0.000000  0.428571      8.000000
  0.142857  0.142857  0.428571      8.000000
  0.285714  0.142857  0.428571     16.000000
  0.428571  0.142857  0.428571     16.000000
  0.285714  0.285714  0.428571      8.000000
  0.428571  0.285714  0.428571     16.000000
  0.428571  0.428571  0.428571      8.000000
 
 Following cartesian coordinates:
            Coordinates               Weight
  0.000000  0.000000  0.000000      1.000000
  0.137891  0.000000  0.000000      4.000000
  0.275782  0.000000  0.000000      4.000000
  0.413672  0.000000  0.000000      4.000000
  0.137891  0.137891  0.000000      4.000000
  0.275782  0.137891  0.000000      8.000000
  0.413672  0.137891  0.000000      8.000000
  0.275782  0.275782  0.000000      4.000000
  0.413672  0.275782  0.000000      8.000000
  0.413672  0.413672  0.000000      4.000000
  0.000000  0.000000  0.137891      2.000000
  0.137891  0.000000  0.137891      8.000000
  0.275782  0.000000  0.137891      8.000000
  0.413672  0.000000  0.137891      8.000000
  0.137891  0.137891  0.137891      8.000000
  0.275782  0.137891  0.137891     16.000000
  0.413672  0.137891  0.137891     16.000000
  0.275782  0.275782  0.137891      8.000000
  0.413672  0.275782  0.137891     16.000000
  0.413672  0.413672  0.137891      8.000000
  0.000000  0.000000  0.275782      2.000000
  0.137891  0.000000  0.275782      8.000000
  0.275782  0.000000  0.275782      8.000000
  0.413672  0.000000  0.275782      8.000000
  0.137891  0.137891  0.275782      8.000000
  0.275782  0.137891  0.275782     16.000000
  0.413672  0.137891  0.275782     16.000000
  0.275782  0.275782  0.275782      8.000000
  0.413672  0.275782  0.275782     16.000000
  0.413672  0.413672  0.275782      8.000000
  0.000000  0.000000  0.413672      2.000000
  0.137891  0.000000  0.413672      8.000000
  0.275782  0.000000  0.413672      8.000000
  0.413672  0.000000  0.413672      8.000000
  0.137891  0.137891  0.413672      8.000000
  0.275782  0.137891  0.413672     16.000000
  0.413672  0.137891  0.413672     16.000000
  0.275782  0.275782  0.413672      8.000000
  0.413672  0.275782  0.413672     16.000000
  0.413672  0.413672  0.413672      8.000000
 


--------------------------------------------------------------------------------------------------------




 Dimension of arrays:
   k-points           NKPTS =     40   k-points in BZ     NKDIM =     40   number of bands    NBANDS=     84
   number of dos      NEDOS =    301   number of ions     NIONS =     16
   non local maximal  LDIM  =      6   non local SUM 2l+1 LMDIM =     18
   total plane-waves  NPLWV =  46656
   max r-space proj   IRMAX =   4030   max aug-charges    IRDMAX=  24965
   dimension x,y,z NGX =    36 NGY =   36 NGZ =   36
   dimension x,y,z NGXF=    72 NGYF=   72 NGZF=   72
   support grid    NGXF=    72 NGYF=   72 NGZF=   72
   ions per type =               8   6   2
   NGX,Y,Z   is equivalent  to a cutoff of  10.03, 10.03, 10.03 a.u.
   NGXF,Y,Z  is equivalent  to a cutoff of  20.06, 20.06, 20.06 a.u.

 SYSTEM =  Testrun for NiMnIn                      
 POSCAR =  Ni2MnIn                                 

 Startparameter for this run:
   NWRITE =      2    write-flag & timer
   PREC   = normal    normal or accurate (medium, high low for compatibility)
   ISTART =      0    job   : 0-new  1-cont  2-samecut
   ICHARG =      2    charge: 1-file 2-atom 10-const
   ISPIN  =      2    spin polarized calculation?
   LNONCOLLINEAR =      F non collinear calculations
   LSORBIT =      F    spin-orbit coupling
   INIWAV =      1    electr: 0-lowe 1-rand  2-diag
   LASPH  =      F    aspherical Exc in radial PAW
   METAGGA=      F    non-selfconsistent MetaGGA calc.

 Electronic Relaxation 1
   ENCUT  =  550.0 eV  40.42 Ry    6.36 a.u.  11.41 11.41 11.41*2*pi/ulx,y,z
   ENINI  =  550.0     initial cutoff
   ENAUG  =  544.6 eV  augmentation charge cutoff
   NELM   =     60;   NELMIN=  2; NELMDL= -5     # of ELM steps 
   EDIFF  = 0.1E-04   stopping-criterion for ELM
   LREAL  =      T    real-space projection
   NLSPLINE    = F    spline interpolate recip. space projectors
   LCOMPAT=      F    compatible to vasp.4.4
   GGA_COMPAT  = T    GGA compatible to vasp.4.4-vasp.4.6
   LMAXPAW     = -100 max onsite density
   LMAXMIX     =    2 max onsite mixed and CHGCAR
   VOSKOWN=      0    Vosko Wilk Nusair interpolation
   ROPT   =   -0.00050  -0.00050  -0.00050
 Ionic relaxation
   EDIFFG = -.1E-01   stopping-criterion for IOM
   NSW    =   1000    number of steps for IOM
   NBLOCK =      1;   KBLOCK =   1000    inner block; outer block 
   IBRION =      2    ionic relax: 0-MD 1-quasi-New 2-CG
   NFREE  =      1    steps in history (QN), initial steepest desc. (CG)
   ISIF   =      2    stress and relaxation
   IWAVPR =     11    prediction:  0-non 1-charg 2-wave 3-comb
   ISYM   =      2    0-nonsym 1-usesym 2-fastsym
   LCORR  =      T    Harris-Foulkes like correction to forces

   POTIM  = 0.5000    time-step for ionic-motion
   TEIN   =    0.0    initial temperature
   TEBEG  =    0.0;   TEEND  =   0.0 temperature during run
   SMASS  =  -3.00    Nose mass-parameter (am)
   estimated Nose-frequenzy (Omega)   =  0.10E-29 period in steps =****** mass=  -0.814E-27a.u.
   SCALEE = 1.0000    scale energy and forces
   NPACO  =    256;   APACO  = 16.0  distance and # of slots for P.C.
   PSTRESS=    0.0 pullay stress

  Mass of Ions in am
   POMASS =  58.69 54.94114.82
  Ionic Valenz
   ZVAL   =  10.00  7.00  3.00
  Atomic Wigner-Seitz radii
   RWIGS  =  -1.00 -1.00 -1.00
  virtual crystal weights 
   VCA    =   1.00  1.00  1.00
   NELECT =     128.0000    total number of electrons
   NUPDOWN=      -1.0000    fix difference up-down

 DOS related values:
   EMIN   =  10.00;   EMAX   =-10.00  energy-range for DOS
   EFERMI =   0.00
   ISMEAR =     0;   SIGMA  =   0.02  broadening in eV -4-tet -1-fermi 0-gaus

 Electronic relaxation 2 (details)
   IALGO  =     68    algorithm
   LDIAG  =      T    sub-space diagonalisation (order eigenvalues)
   LSUBROT=      F    optimize rotation matrix (better conditioning)
   TURBO    =      0    0=normal 1=particle mesh
   IRESTART =      0    0=no restart 2=restart with 2 vectors
   NREBOOT  =      0    no. of reboots
   NMIN     =      0    reboot dimension
   EREF     =   0.00    reference energy to select bands
   IMIX   =      4    mixing-type and parameters
     AMIX     =   0.40;   BMIX     =  1.00
     AMIX_MAG =   1.60;   BMIX_MAG =  1.00
     AMIN     =   0.10
     WC   =   100.;   INIMIX=   1;  MIXPRE=   1;  MAXMIX= -45

 Intra band minimization:
   WEIMIN = 0.0010     energy-eigenvalue tresh-hold
   EBREAK =  0.30E-07  absolut break condition
   DEPER  =   0.30     relativ break condition  

   TIME   =   0.40     timestep for ELM

  volume/ion in A,a.u.               =      13.28        89.63
  Fermi-wavevector in a.u.,A,eV,Ry     =   1.382576  2.612690 26.007761  1.911517
  Thomas-Fermi vector in A             =   2.507254

 Write flags
   LWAVE        =      F    write WAVECAR
   LDOWNSAMPLE  =      F    k-point downsampling of WAVECAR
   LCHARG       =      T    write CHGCAR
   LVTOT        =      F    write LOCPOT, total local potential
   LVHAR        =      F    write LOCPOT, Hartree potential only
   LELF         =      F    write electronic localiz. function (ELF)
   LORBIT       =     11    0 simple, 1 ext, 2 COOP (PROOUT), +10 PAW based schemes


 Dipole corrections
   LMONO  =      F    monopole corrections only (constant potential shift)
   LDIPOL =      F    correct potential (dipole corrections)
   IDIPOL =      0    1-x, 2-y, 3-z, 4-all directions 
   EPSILON=  1.0000000 bulk dielectric constant

 Exchange correlation treatment:
   GGA     =    --    GGA type
   LEXCH   =     8    internal setting for exchange type
   VOSKOWN=      0    Vosko Wilk Nusair interpolation
   LHFCALC =     F    Hartree Fock is set to
   LHFONE  =     F    Hartree Fock one center treatment
   AEXX    =    0.0000 exact exchange contribution

 Linear response parameters
   LEPSILON=     F    determine dielectric tensor
   LRPA    =     F    only Hartree local field effects (RPA)
   LNABLA  =     F    use nabla operator in PAW spheres
   LVEL    =     F    velocity operator in full k-point grid
   LINTERFAST=   F  fast interpolation
   KINTER  =     0    interpolate to denser k-point grid
   CSHIFT  =0.1000    complex shift for real part using Kramers Kronig
   OMEGAMAX=  -1.0    maximum frequency
   DEG_THRESHOLD= 0.2000000E-02 threshold for treating states as degnerate
   RTIME   =   -0.100 relaxation time in fs
  (WPLASMAI=    0.000 imaginary part of plasma frequency in eV, 0.658/RTIME)
   DFIELD  = 0.0000000 0.0000000 0.0000000 field for delta impulse in time

 Orbital magnetization related:
   ORBITALMAG=     F  switch on orbital magnetization
   LCHIMAG   =     F  perturbation theory with respect to B field
   DQ        =  0.001000  dq finite difference perturbation B field
   LLRAUG    =     F  two centre corrections for induced B field



--------------------------------------------------------------------------------------------------------


 conjugate gradient relaxation of ions
 charge density and potential will be updated during run
 spin polarized calculation
 RMM-DIIS sequential band-by-band and
  variant of blocked Davidson during initial phase
 perform sub-space diagonalisation
    before iterative eigenvector-optimisation
 modified Broyden-mixing scheme, WC =      100.0
 initial mixing is a Kerker type mixing with AMIX =  0.4000 and BMIX =      1.0000
 Hartree-type preconditioning will be used
 using additional bands           20
 real space projection scheme for non local part
 use partial core corrections
 calculate Harris-corrections to forces   (improved forces if not selfconsistent)
 use gradient corrections 
 use of overlap-Matrix (Vanderbilt PP)
 Gauss-broadening in eV      SIGMA  =   0.02


--------------------------------------------------------------------------------------------------------


  energy-cutoff  :      550.00
  volume of cell :      212.50
      direct lattice vectors                 reciprocal lattice vectors
     5.967454639  0.000000000  0.000000000     0.167575635  0.000000000  0.000000000
     0.000000000  5.967454639  0.000000000     0.000000000  0.167575635  0.000000000
     0.000000000  0.000000000  5.967454639     0.000000000  0.000000000  0.167575635

  length of vectors
     5.967454639  5.967454639  5.967454639     0.167575635  0.167575635  0.167575635



 k-points in units of 2pi/SCALE and weight: k-points                                
   0.00000000  0.00000000  0.00000000       0.003
   0.13789081  0.00000000  0.00000000       0.012
   0.27578162  0.00000000  0.00000000       0.012
   0.41367242  0.00000000  0.00000000       0.012
   0.13789081  0.13789081  0.00000000       0.012
   0.27578162  0.13789081  0.00000000       0.023
   0.41367242  0.13789081  0.00000000       0.023
   0.27578162  0.27578162  0.00000000       0.012
   0.41367242  0.27578162  0.00000000       0.023
   0.41367242  0.41367242  0.00000000       0.012
   0.00000000  0.00000000  0.13789081       0.006
   0.13789081  0.00000000  0.13789081       0.023
   0.27578162  0.00000000  0.13789081       0.023
   0.41367242  0.00000000  0.13789081       0.023
   0.13789081  0.13789081  0.13789081       0.023
   0.27578162  0.13789081  0.13789081       0.047
   0.41367242  0.13789081  0.13789081       0.047
   0.27578162  0.27578162  0.13789081       0.023
   0.41367242  0.27578162  0.13789081       0.047
   0.41367242  0.41367242  0.13789081       0.023
   0.00000000  0.00000000  0.27578162       0.006
   0.13789081  0.00000000  0.27578162       0.023
   0.27578162  0.00000000  0.27578162       0.023
   0.41367242  0.00000000  0.27578162       0.023
   0.13789081  0.13789081  0.27578162       0.023
   0.27578162  0.13789081  0.27578162       0.047
   0.41367242  0.13789081  0.27578162       0.047
   0.27578162  0.27578162  0.27578162       0.023
   0.41367242  0.27578162  0.27578162       0.047
   0.41367242  0.41367242  0.27578162       0.023
   0.00000000  0.00000000  0.41367242       0.006
   0.13789081  0.00000000  0.41367242       0.023
   0.27578162  0.00000000  0.41367242       0.023
   0.41367242  0.00000000  0.41367242       0.023
   0.13789081  0.13789081  0.41367242       0.023
   0.27578162  0.13789081  0.41367242       0.047
   0.41367242  0.13789081  0.41367242       0.047
   0.27578162  0.27578162  0.41367242       0.023
   0.41367242  0.27578162  0.41367242       0.047
   0.41367242  0.41367242  0.41367242       0.023

 k-points in reciprocal lattice and weights: k-points                                
   0.00000000  0.00000000  0.00000000       0.003
   0.14285714  0.00000000  0.00000000       0.012
   0.28571429  0.00000000  0.00000000       0.012
   0.42857143  0.00000000  0.00000000       0.012
   0.14285714  0.14285714  0.00000000       0.012
   0.28571429  0.14285714  0.00000000       0.023
   0.42857143  0.14285714  0.00000000       0.023
   0.28571429  0.28571429  0.00000000       0.012
   0.42857143  0.28571429  0.00000000       0.023
   0.42857143  0.42857143  0.00000000       0.012
   0.00000000  0.00000000  0.14285714       0.006
   0.14285714  0.00000000  0.14285714       0.023
   0.28571429  0.00000000  0.14285714       0.023
   0.42857143  0.00000000  0.14285714       0.023
   0.14285714  0.14285714  0.14285714       0.023
   0.28571429  0.14285714  0.14285714       0.047
   0.42857143  0.14285714  0.14285714       0.047
   0.28571429  0.28571429  0.14285714       0.023
   0.42857143  0.28571429  0.14285714       0.047
   0.42857143  0.42857143  0.14285714       0.023
   0.00000000  0.00000000  0.28571429       0.006
   0.14285714  0.00000000  0.28571429       0.023
   0.28571429  0.00000000  0.28571429       0.023
   0.42857143  0.00000000  0.28571429       0.023
   0.14285714  0.14285714  0.28571429       0.023
   0.28571429  0.14285714  0.28571429       0.047
   0.42857143  0.14285714  0.28571429       0.047
   0.28571429  0.28571429  0.28571429       0.023
   0.42857143  0.28571429  0.28571429       0.047
   0.42857143  0.42857143  0.28571429       0.023
   0.00000000  0.00000000  0.42857143       0.006
   0.14285714  0.00000000  0.42857143       0.023
   0.28571429  0.00000000  0.42857143       0.023
   0.42857143  0.00000000  0.42857143       0.023
   0.14285714  0.14285714  0.42857143       0.023
   0.28571429  0.14285714  0.42857143       0.047
   0.42857143  0.14285714  0.42857143       0.047
   0.28571429  0.28571429  0.42857143       0.023
   0.42857143  0.28571429  0.42857143       0.047
   0.42857143  0.42857143  0.42857143       0.023

 position of ions in fractional coordinates (direct lattice) 
   0.25000000  0.25000000  0.25000000
   0.75000000  0.25000000  0.25000000
   0.25000000  0.75000000  0.25000000
   0.75000000  0.75000000  0.25000000
   0.25000000  0.25000000  0.75000000
   0.75000000  0.25000000  0.75000000
   0.25000000  0.75000000  0.75000000
   0.75000000  0.75000000  0.75000000
   0.50000000  0.00000000  0.00000000
   0.50000000  0.50000000  0.00000000
   0.00000000  0.50000000  0.00000000
   0.00000000  0.00000000  0.50000000
   0.50000000  0.00000000  0.50000000
   0.00000000  0.50000000  0.50000000
   0.00000000  0.00000000  0.00000000
   0.50000000  0.50000000  0.50000000

 position of ions in cartesian coordinates  (Angst):
   1.49186366  1.49186366  1.49186366
   4.47559098  1.49186366  1.49186366
   1.49186366  4.47559098  1.49186366
   4.47559098  4.47559098  1.49186366
   1.49186366  1.49186366  4.47559098
   4.47559098  1.49186366  4.47559098
   1.49186366  4.47559098  4.47559098
   4.47559098  4.47559098  4.47559098
   2.98372732  0.00000000  0.00000000
   2.98372732  2.98372732  0.00000000
   0.00000000  2.98372732  0.00000000
   0.00000000  0.00000000  2.98372732
   2.98372732  0.00000000  2.98372732
   0.00000000  2.98372732  2.98372732
   0.00000000  0.00000000  0.00000000
   2.98372732  2.98372732  2.98372732



--------------------------------------------------------------------------------------------------------


 k-point  1 :   0.0000 0.0000 0.0000  plane waves:    6235
 k-point  2 :   0.1429 0.0000 0.0000  plane waves:    6227
 k-point  3 :   0.2857 0.0000 0.0000  plane waves:    6227
 k-point  4 :   0.4286 0.0000 0.0000  plane waves:    6238
 k-point  5 :   0.1429 0.1429 0.0000  plane waves:    6236
 k-point  6 :   0.2857 0.1429 0.0000  plane waves:    6226
 k-point  7 :   0.4286 0.1429 0.0000  plane waves:    6230
 k-point  8 :   0.2857 0.2857 0.0000  plane waves:    6234
 k-point  9 :   0.4286 0.2857 0.0000  plane waves:    6217
 k-point 10 :   0.4286 0.4286 0.0000  plane waves:    6220
 k-point 11 :   0.0000 0.0000 0.1429  plane waves:    6227
 k-point 12 :   0.1429 0.0000 0.1429  plane waves:    6236
 k-point 13 :   0.2857 0.0000 0.1429  plane waves:    6226
 k-point 14 :   0.4286 0.0000 0.1429  plane waves:    6230
 k-point 15 :   0.1429 0.1429 0.1429  plane waves:    6241
 k-point 16 :   0.2857 0.1429 0.1429  plane waves:    6228
 k-point 17 :   0.4286 0.1429 0.1429  plane waves:    6231
 k-point 18 :   0.2857 0.2857 0.1429  plane waves:    6222
 k-point 19 :   0.4286 0.2857 0.1429  plane waves:    6227
 k-point 20 :   0.4286 0.4286 0.1429  plane waves:    6217
 k-point 21 :   0.0000 0.0000 0.2857  plane waves:    6227
 k-point 22 :   0.1429 0.0000 0.2857  plane waves:    6226
 k-point 23 :   0.2857 0.0000 0.2857  plane waves:    6234
 k-point 24 :   0.4286 0.0000 0.2857  plane waves:    6217
 k-point 25 :   0.1429 0.1429 0.2857  plane waves:    6228
 k-point 26 :   0.2857 0.1429 0.2857  plane waves:    6222
 k-point 27 :   0.4286 0.1429 0.2857  plane waves:    6227
 k-point 28 :   0.2857 0.2857 0.2857  plane waves:    6217
 k-point 29 :   0.4286 0.2857 0.2857  plane waves:    6226
 k-point 30 :   0.4286 0.4286 0.2857  plane waves:    6208
 k-point 31 :   0.0000 0.0000 0.4286  plane waves:    6238
 k-point 32 :   0.1429 0.0000 0.4286  plane waves:    6230
 k-point 33 :   0.2857 0.0000 0.4286  plane waves:    6217
 k-point 34 :   0.4286 0.0000 0.4286  plane waves:    6220
 k-point 35 :   0.1429 0.1429 0.4286  plane waves:    6231
 k-point 36 :   0.2857 0.1429 0.4286  plane waves:    6227
 k-point 37 :   0.4286 0.1429 0.4286  plane waves:    6217
 k-point 38 :   0.2857 0.2857 0.4286  plane waves:    6226
 k-point 39 :   0.4286 0.2857 0.4286  plane waves:    6208
 k-point 40 :   0.4286 0.4286 0.4286  plane waves:    6179

 maximum and minimum number of plane-waves per node :      6241     6179

 maximum number of plane-waves:      6241
 maximum index in each direction: 
   IXMAX=   11   IYMAX=   11   IZMAX=   11
   IXMIN=  -11   IYMIN=  -11   IZMIN=  -11


 serial   3D FFT for wavefunctions
 parallel 3D FFT for charge:
    minimum data exchange during FFTs selected (reduces bandwidth)


 total amount of memory used by VASP MPI-rank0   103772. kBytes
=======================================================================

   base      :      30000. kBytes
   nonlr-proj:       6835. kBytes
   fftplans  :       1269. kBytes
   grid      :       6573. kBytes
   one-center:        497. kBytes
   wavefun   :      58598. kBytes

     INWAV:  cpu time    0.0000: real time    0.0002
 Broyden mixing: mesh for mixing (old mesh)
   NGX = 23   NGY = 23   NGZ = 23
  (NGX  = 72   NGY  = 72   NGZ  = 72)
  gives a total of  12167 points

 initial charge density was supplied:
 charge density of overlapping atoms calculated
 number of electron     128.0000000 magnetization       0.8000000
 keeping initial charge density in first step


--------------------------------------------------------------------------------------------------------


 Maximum index for non-local projection operator         3887
 Maximum index for augmentation-charges         2111 (set IRDMAX)


--------------------------------------------------------------------------------------------------------


 First call to EWALD:  gamma=   0.297
 Maximum number of real-space cells 3x 3x 3
 Maximum number of reciprocal cells 3x 3x 3

    FEWALD:  cpu time    0.0022: real time    0.0022


--------------------------------------- Iteration      1(   1)  ---------------------------------------


    POTLOK:  cpu time    0.1055: real time    0.1200
    SETDIJ:  cpu time    0.0357: real time    0.0357
     EDDAV:  cpu time   23.4539: real time   23.4777
       DOS:  cpu time    0.0035: real time    0.0035
    --------------------------------------------
      LOOP:  cpu time   23.5986: real time   23.6370

 eigenvalue-minimisations  : 13440
 total energy-change (2. order) : 0.1066516E+04  (-0.5413129E+04)
 number of electron     128.0000000 magnetization       0.8000000
 augmentation part      128.0000000 magnetization       0.8000000

 Free energy of the ion-electron system (eV)
  ---------------------------------------------------
  alpha Z        PSCENC =       529.51708554
  Ewald energy   TEWEN  =     -9392.49184515
  -Hartree energ DENC   =     -3029.60834591
  -exchange      EXHF   =         0.00000000
  -V(xc)+E(xc)   XCENC  =        77.96689623
  PAW double counting   =     10320.96726947   -10647.99417394
  entropy T*S    EENTRO =        -0.00093991
  eigenvalues    EBANDS =      1978.69842540
  atomic energy  EATOM  =     11229.46195210
  Solvation  Ediel_sol  =         0.00000000
  ---------------------------------------------------
  free energy    TOTEN  =      1066.51632384 eV

  energy without entropy =     1066.51726374  energy(sigma->0) =     1066.51679379


--------------------------------------------------------------------------------------------------------




--------------------------------------- Iteration      1(   2)  ---------------------------------------


     EDDAV:  cpu time   24.4174: real time   24.4417
       DOS:  cpu time    0.0037: real time    0.0037
    --------------------------------------------
      LOOP:  cpu time   24.4210: real time   24.4453

 eigenvalue-minimisations  : 13440
 total energy-change (2. order) :-0.1064575E+04  (-0.1032134E+04)
 number of electron     128.0000000 magnetization       0.8000000
 augmentation part      128.0000000 magnetization       0.8000000

 Free energy of the ion-electron system (eV)
  ---------------------------------------------------
  alpha Z        PSCENC =       529.51708554
  Ewald energy   TEWEN  =     -9392.49184515
  -Hartree energ DENC   =     -3029.60834591
  -exchange      EXHF   =         0.00000000
  -V(xc)+E(xc)   XCENC  =        77.96689623
  PAW double counting   =     10320.96726947   -10647.99417394
  entropy T*S    EENTRO =        -0.00310650
  eigenvalues    EBANDS =       914.12586659
  atomic energy  EATOM  =     11229.46195210
  Solvation  Ediel_sol  =         0.00000000
  ---------------------------------------------------
  free energy    TOTEN  =         1.94159842 eV

  energy without entropy =        1.94470493  energy(sigma->0) =        1.94315167


--------------------------------------------------------------------------------------------------------




--------------------------------------- Iteration      1(   3)  ---------------------------------------


     EDDAV:  cpu time   25.8131: real time   25.8385
       DOS:  cpu time    0.0038: real time    0.0038
    --------------------------------------------
      LOOP:  cpu time   25.8168: real time   25.8422

 eigenvalue-minimisations  : 15084
 total energy-change (2. order) :-0.1109152E+03  (-0.1000398E+03)
 number of electron     128.0000000 magnetization       0.8000000
 augmentation part      128.0000000 magnetization       0.8000000

 Free energy of the ion-electron system (eV)
  ---------------------------------------------------
  alpha Z        PSCENC =       529.51708554
  Ewald energy   TEWEN  =     -9392.49184515
  -Hartree energ DENC   =     -3029.60834591
  -exchange      EXHF   =         0.00000000
  -V(xc)+E(xc)   XCENC  =        77.96689623
  PAW double counting   =     10320.96726947   -10647.99417394
  entropy T*S    EENTRO =        -0.00398785
  eigenvalues    EBANDS =       803.21154587
  atomic energy  EATOM  =     11229.46195210
  Solvation  Ediel_sol  =         0.00000000
  ---------------------------------------------------
  free energy    TOTEN  =      -108.97360365 eV

  energy without entropy =     -108.96961579  energy(sigma->0) =     -108.97160972


--------------------------------------------------------------------------------------------------------




--------------------------------------- Iteration      1(   4)  ---------------------------------------


     EDDAV:  cpu time   33.1442: real time   33.1934
       DOS:  cpu time    0.0038: real time    0.0038
    --------------------------------------------
      LOOP:  cpu time   33.1479: real time   33.1972

 eigenvalue-minimisations  : 20304
 total energy-change (2. order) :-0.6802748E+01  (-0.6432141E+01)
 number of electron     128.0000000 magnetization       0.8000000
 augmentation part      128.0000000 magnetization       0.8000000

 Free energy of the ion-electron system (eV)
  ---------------------------------------------------
  alpha Z        PSCENC =       529.51708554
  Ewald energy   TEWEN  =     -9392.49184515
  -Hartree energ DENC   =     -3029.60834591
  -exchange      EXHF   =         0.00000000
  -V(xc)+E(xc)   XCENC  =        77.96689623
  PAW double counting   =     10320.96726947   -10647.99417394
  entropy T*S    EENTRO =        -0.00420117
  eigenvalues    EBANDS =       796.40901123
  atomic energy  EATOM  =     11229.46195210
  Solvation  Ediel_sol  =         0.00000000
  ---------------------------------------------------
  free energy    TOTEN  =      -115.77635159 eV

  energy without entropy =     -115.77215043  energy(sigma->0) =     -115.77425101


--------------------------------------------------------------------------------------------------------




--------------------------------------- Iteration      1(   5)  ---------------------------------------


     EDDAV:  cpu time   32.2771: real time   32.3227
       DOS:  cpu time    0.0037: real time    0.0037
    CHARGE:  cpu time    0.6933: real time    0.6939
    MIXING:  cpu time    0.0016: real time    0.0016
    --------------------------------------------
      LOOP:  cpu time   32.9756: real time   33.0219

 eigenvalue-minimisations  : 19740
 total energy-change (2. order) :-0.2211775E+00  (-0.2201979E+00)
 number of electron     127.9999525 magnetization       0.5178045
 augmentation part       60.6193571 magnetization       0.4111696

 Broyden mixing:
  rms(total) = 0.34029E+01    rms(broyden)= 0.34029E+01
  rms(prec ) = 0.53338E+01
  weight for this iteration     100.00

 Free energy of the ion-electron system (eV)
  ---------------------------------------------------
  alpha Z        PSCENC =       529.51708554
  Ewald energy   TEWEN  =     -9392.49184515
  -Hartree energ DENC   =     -3029.60834591
  -exchange      EXHF   =         0.00000000
  -V(xc)+E(xc)   XCENC  =        77.96689623
  PAW double counting   =     10320.96726947   -10647.99417394
  entropy T*S    EENTRO =        -0.00411187
  eigenvalues    EBANDS =       796.18774446
  atomic energy  EATOM  =     11229.46195210
  Solvation  Ediel_sol  =         0.00000000
  ---------------------------------------------------
  free energy    TOTEN  =      -115.99752907 eV

  energy without entropy =     -115.99341720  energy(sigma->0) =     -115.99547314


--------------------------------------------------------------------------------------------------------




--------------------------------------- Iteration      1(   6)  ---------------------------------------


    POTLOK:  cpu time    0.0988: real time    0.0994
    SETDIJ:  cpu time    0.0361: real time    0.0362
    EDDIAG:  cpu time    3.3029: real time    3.3062
  RMM-DIIS:  cpu time   10.6494: real time   10.6584
    ORTHCH:  cpu time    0.6398: real time    0.6402
       DOS:  cpu time    0.0039: real time    0.0041
    CHARGE:  cpu time    0.6782: real time    0.6787
    MIXING:  cpu time    0.0016: real time    0.0017
    --------------------------------------------
      LOOP:  cpu time   15.4107: real time   15.4249

 eigenvalue-minimisations  : 13440
 total energy-change (2. order) : 0.5608433E+01  (-0.1725604E+02)
 number of electron     127.9999658 magnetization       0.6497861
 augmentation part       69.4497621 magnetization       0.3985591

 Broyden mixing:
  rms(total) = 0.48480E+01    rms(broyden)= 0.48479E+01
  rms(prec ) = 0.65298E+01
  weight for this iteration     100.00

 eigenvalues of (default mixing * dielectric matrix)
  average eigenvalue GAMMA=   0.1992
  0.1992

 Free energy of the ion-electron system (eV)
  ---------------------------------------------------
  alpha Z        PSCENC =       529.51708554
  Ewald energy   TEWEN  =     -9392.49184515
  -Hartree energ DENC   =     -2796.96825563
  -exchange      EXHF   =         0.00000000
  -V(xc)+E(xc)   XCENC  =        65.97035165
  PAW double counting   =     11113.22776140   -11406.66236472
  entropy T*S    EENTRO =        -0.00487714
  eigenvalues    EBANDS =       547.56109545
  atomic energy  EATOM  =     11229.46195210
  Solvation  Ediel_sol  =         0.00000000
  ---------------------------------------------------
  free energy    TOTEN  =      -110.38909650 eV

  energy without entropy =     -110.38421936  energy(sigma->0) =     -110.38665793


--------------------------------------------------------------------------------------------------------




--------------------------------------- Iteration      1(   7)  ---------------------------------------


    POTLOK:  cpu time    0.0978: real time    0.0979
    SETDIJ:  cpu time    0.0360: real time    0.0360
    EDDIAG:  cpu time    3.3114: real time    3.3143
  RMM-DIIS:  cpu time   10.5803: real time   10.5896
    ORTHCH:  cpu time    0.6380: real time    0.6385
       DOS:  cpu time    0.0037: real time    0.0038
    CHARGE:  cpu time    0.6811: real time    0.6816
    MIXING:  cpu time    0.0016: real time    0.0016
    --------------------------------------------
      LOOP:  cpu time   15.3500: real time   15.3634

 eigenvalue-minimisations  : 13446
 total energy-change (2. order) : 0.7655474E+00  (-0.3256374E+01)
 number of electron     127.9999444 magnetization       0.7178665
 augmentation part       70.8291792 magnetization       0.6976359

 Broyden mixing:
  rms(total) = 0.32148E+01    rms(broyden)= 0.32146E+01
  rms(prec ) = 0.53470E+01
  weight for this iteration     100.00

 eigenvalues of (default mixing * dielectric matrix)
  average eigenvalue GAMMA=   0.4329
  0.4329  0.4329

 Free energy of the ion-electron system (eV)
  ---------------------------------------------------
  alpha Z        PSCENC =       529.51708554
  Ewald energy   TEWEN  =     -9392.49184515
  -Hartree energ DENC   =     -2776.11124942
  -exchange      EXHF   =         0.00000000
  -V(xc)+E(xc)   XCENC  =        66.26179087
  PAW double counting   =     11380.54694042   -11677.44152380
  entropy T*S    EENTRO =        -0.00297514
  eigenvalues    EBANDS =       530.63627548
  atomic energy  EATOM  =     11229.46195210
  Solvation  Ediel_sol  =         0.00000000
  ---------------------------------------------------
  free energy    TOTEN  =      -109.62354911 eV

  energy without entropy =     -109.62057397  energy(sigma->0) =     -109.62206154


--------------------------------------------------------------------------------------------------------




--------------------------------------- Iteration      1(   8)  ---------------------------------------


    POTLOK:  cpu time    0.0977: real time    0.0979
    SETDIJ:  cpu time    0.0360: real time    0.0360
    EDDIAG:  cpu time    3.3202: real time    3.3236
  RMM-DIIS:  cpu time   10.6684: real time   10.6775
    ORTHCH:  cpu time    0.6368: real time    0.6373
       DOS:  cpu time    0.0039: real time    0.0041
    CHARGE:  cpu time    0.6766: real time    0.6771
    MIXING:  cpu time    0.0018: real time    0.0018
    --------------------------------------------
      LOOP:  cpu time   15.4414: real time   15.4553

 eigenvalue-minimisations  : 13452
 total energy-change (2. order) : 0.5000020E+01  (-0.2359623E+01)
 number of electron     127.9999625 magnetization       1.3034321
 augmentation part       67.7490872 magnetization       0.3053225

 Broyden mixing:
  rms(total) = 0.23197E+01    rms(broyden)= 0.23194E+01
  rms(prec ) = 0.43486E+01
  weight for this iteration     100.00

 eigenvalues of (default mixing * dielectric matrix)
  average eigenvalue GAMMA=   0.4449
  0.5739  0.5739  0.1870

 Free energy of the ion-electron system (eV)
  ---------------------------------------------------
  alpha Z        PSCENC =       529.51708554
  Ewald energy   TEWEN  =     -9392.49184515
  -Hartree energ DENC   =     -2843.74739768
  -exchange      EXHF   =         0.00000000
  -V(xc)+E(xc)   XCENC  =        71.71747229
  PAW double counting   =     11798.87231770   -12124.61796271
  entropy T*S    EENTRO =        -0.00376928
  eigenvalues    EBANDS =       626.66861793
  atomic energy  EATOM  =     11229.46195210
  Solvation  Ediel_sol  =         0.00000000
  ---------------------------------------------------
  free energy    TOTEN  =      -104.62352927 eV

  energy without entropy =     -104.61975999  energy(sigma->0) =     -104.62164463


--------------------------------------------------------------------------------------------------------




--------------------------------------- Iteration      1(   9)  ---------------------------------------


    POTLOK:  cpu time    0.0981: real time    0.0982
    SETDIJ:  cpu time    0.0360: real time    0.0360
    EDDIAG:  cpu time    3.3560: real time    3.3591
  RMM-DIIS:  cpu time   11.1063: real time   11.1158
    ORTHCH:  cpu time    0.6385: real time    0.6395
       DOS:  cpu time    0.0039: real time    0.0041
    CHARGE:  cpu time    0.6786: real time    0.6791
    MIXING:  cpu time    0.0018: real time    0.0018
    --------------------------------------------
      LOOP:  cpu time   15.9192: real time   15.9336

 eigenvalue-minimisations  : 14093
 total energy-change (2. order) : 0.1046159E+01  (-0.3734269E+00)
 number of electron     127.9999562 magnetization       1.4970170
 augmentation part       67.1577888 magnetization       1.7558921

 Broyden mixing:
  rms(total) = 0.16123E+01    rms(broyden)= 0.16121E+01
  rms(prec ) = 0.30052E+01
  weight for this iteration     100.00

 eigenvalues of (default mixing * dielectric matrix)
  average eigenvalue GAMMA=   0.5054
  0.9217  0.6360  0.3119  0.1518

 Free energy of the ion-electron system (eV)
  ---------------------------------------------------
  alpha Z        PSCENC =       529.51708554
  Ewald energy   TEWEN  =     -9392.49184515
  -Hartree energ DENC   =     -2846.80824143
  -exchange      EXHF   =         0.00000000
  -V(xc)+E(xc)   XCENC  =        72.57254107
  PAW double counting   =     11981.09952747   -12311.95751687
  entropy T*S    EENTRO =        -0.00489970
  eigenvalues    EBANDS =       635.03402641
  atomic energy  EATOM  =     11229.46195210
  Solvation  Ediel_sol  =         0.00000000
  ---------------------------------------------------
  free energy    TOTEN  =      -103.57737056 eV

  energy without entropy =     -103.57247086  energy(sigma->0) =     -103.57492071


--------------------------------------------------------------------------------------------------------




--------------------------------------- Iteration      1(  10)  ---------------------------------------


    POTLOK:  cpu time    0.1038: real time    0.1049
    SETDIJ:  cpu time    0.0376: real time    0.0376
    EDDIAG:  cpu time    3.3721: real time    3.3777
  RMM-DIIS:  cpu time   10.7139: real time   10.7289
    ORTHCH:  cpu time    0.6403: real time    0.6408
       DOS:  cpu time    0.0036: real time    0.0036
    CHARGE:  cpu time    0.6788: real time    0.6795
    MIXING:  cpu time    0.0020: real time    0.0020
    --------------------------------------------
      LOOP:  cpu time   15.5521: real time   15.5750

 eigenvalue-minimisations  : 13440
 total energy-change (2. order) : 0.1171885E+01  (-0.2052376E+00)
 number of electron     127.9999542 magnetization       1.2512401
 augmentation part       67.9911937 magnetization       1.0039307

 Broyden mixing:
  rms(total) = 0.97738E+00    rms(broyden)= 0.97732E+00
  rms(prec ) = 0.12456E+01
  weight for this iteration     100.00

 eigenvalues of (default mixing * dielectric matrix)
  average eigenvalue GAMMA=   0.5075
  1.1464  0.6300  0.4270  0.1835  0.1505

 Free energy of the ion-electron system (eV)
  ---------------------------------------------------
  alpha Z        PSCENC =       529.51708554
  Ewald energy   TEWEN  =     -9392.49184515
  -Hartree energ DENC   =     -2833.40739688
  -exchange      EXHF   =         0.00000000
  -V(xc)+E(xc)   XCENC  =        72.71762899
  PAW double counting   =     12255.50207078   -12589.00647559
  entropy T*S    EENTRO =        -0.00287042
  eigenvalues    EBANDS =       625.30436469
  atomic energy  EATOM  =     11229.46195210
  Solvation  Ediel_sol  =         0.00000000
  ---------------------------------------------------
  free energy    TOTEN  =      -102.40548595 eV

  energy without entropy =     -102.40261553  energy(sigma->0) =     -102.40405074


--------------------------------------------------------------------------------------------------------




--------------------------------------- Iteration      1(  11)  ---------------------------------------


    POTLOK:  cpu time    0.0981: real time    0.0982
    SETDIJ:  cpu time    0.0374: real time    0.0374
    EDDIAG:  cpu time    3.3498: real time    3.3541
  RMM-DIIS:  cpu time   10.7845: real time   10.8012
    ORTHCH:  cpu time    0.6382: real time    0.6390
       DOS:  cpu time    0.0036: real time    0.0036
    CHARGE:  cpu time    0.6830: real time    0.6846
    MIXING:  cpu time    0.0020: real time    0.0020
    --------------------------------------------
      LOOP:  cpu time   15.5965: real time   15.6201

 eigenvalue-minimisations  : 13681
 total energy-change (2. order) :-0.1125828E+00  (-0.3243179E-01)
 number of electron     127.9999549 magnetization       0.9442190
 augmentation part       67.8797775 magnetization       0.8488456

 Broyden mixing:
  rms(total) = 0.54642E+00    rms(broyden)= 0.54641E+00
  rms(prec ) = 0.64485E+00
  weight for this iteration     100.00

 eigenvalues of (default mixing * dielectric matrix)
  average eigenvalue GAMMA=   0.5710
  1.2287  0.6186  0.6186  0.5911  0.2246  0.1443

 Free energy of the ion-electron system (eV)
  ---------------------------------------------------
  alpha Z        PSCENC =       529.51708554
  Ewald energy   TEWEN  =     -9392.49184515
  -Hartree energ DENC   =     -2832.47587828
  -exchange      EXHF   =         0.00000000
  -V(xc)+E(xc)   XCENC  =        74.14861883
  PAW double counting   =     12498.40877915   -12836.38000277
  entropy T*S    EENTRO =        -0.00309528
  eigenvalues    EBANDS =       627.29631708
  atomic energy  EATOM  =     11229.46195210
  Solvation  Ediel_sol  =         0.00000000
  ---------------------------------------------------
  free energy    TOTEN  =      -102.51806878 eV

  energy without entropy =     -102.51497350  energy(sigma->0) =     -102.51652114


--------------------------------------------------------------------------------------------------------




--------------------------------------- Iteration      1(  12)  ---------------------------------------


    POTLOK:  cpu time    0.0973: real time    0.0981
    SETDIJ:  cpu time    0.0359: real time    0.0360
    EDDIAG:  cpu time    3.3535: real time    3.3578
  RMM-DIIS:  cpu time   10.6438: real time   10.6600
    ORTHCH:  cpu time    0.6410: real time    0.6417
       DOS:  cpu time    0.0039: real time    0.0039
    CHARGE:  cpu time    0.6796: real time    0.6804
    MIXING:  cpu time    0.0022: real time    0.0021
    --------------------------------------------
      LOOP:  cpu time   15.4571: real time   15.4800

 eigenvalue-minimisations  : 13536
 total energy-change (2. order) :-0.1315961E+00  (-0.2322280E-01)
 number of electron     127.9999558 magnetization       0.5681979
 augmentation part       67.7036112 magnetization       0.3651654

 Broyden mixing:
  rms(total) = 0.44528E+00    rms(broyden)= 0.44528E+00
  rms(prec ) = 0.57397E+00
  weight for this iteration     100.00

 eigenvalues of (default mixing * dielectric matrix)
  average eigenvalue GAMMA=   0.6916
  1.9582  0.8223  0.8223  0.5522  0.1445  0.2226  0.3192

 Free energy of the ion-electron system (eV)
  ---------------------------------------------------
  alpha Z        PSCENC =       529.51708554
  Ewald energy   TEWEN  =     -9392.49184515
  -Hartree energ DENC   =     -2833.22927652
  -exchange      EXHF   =         0.00000000
  -V(xc)+E(xc)   XCENC  =        75.05510331
  PAW double counting   =     12643.32748822   -12984.07773722
  entropy T*S    EENTRO =        -0.00258921
  eigenvalues    EBANDS =       629.79015401
  atomic energy  EATOM  =     11229.46195210
  Solvation  Ediel_sol  =         0.00000000
  ---------------------------------------------------
  free energy    TOTEN  =      -102.64966492 eV

  energy without entropy =     -102.64707571  energy(sigma->0) =     -102.64837032


--------------------------------------------------------------------------------------------------------




--------------------------------------- Iteration      1(  13)  ---------------------------------------


    POTLOK:  cpu time    0.1031: real time    0.1032
    SETDIJ:  cpu time    0.0358: real time    0.0358
    EDDIAG:  cpu time    3.3588: real time    3.3639
  RMM-DIIS:  cpu time   10.8141: real time   10.8278
    ORTHCH:  cpu time    0.6364: real time    0.6372
       DOS:  cpu time    0.0035: real time    0.0035
    CHARGE:  cpu time    0.6785: real time    0.6791
    MIXING:  cpu time    0.0023: real time    0.0023
    --------------------------------------------
      LOOP:  cpu time   15.6324: real time   15.6527

 eigenvalue-minimisations  : 13776
 total energy-change (2. order) :-0.4213114E-01  (-0.1606184E-01)
 number of electron     127.9999557 magnetization       0.3642057
 augmentation part       67.8341763 magnetization       0.3455368

 Broyden mixing:
  rms(total) = 0.17754E+00    rms(broyden)= 0.17752E+00
  rms(prec ) = 0.25897E+00
  weight for this iteration     100.00

 eigenvalues of (default mixing * dielectric matrix)
  average eigenvalue GAMMA=   0.7431
  2.1564  0.9628  0.9628  0.5991  0.5991  0.1445  0.2225  0.2971

 Free energy of the ion-electron system (eV)
  ---------------------------------------------------
  alpha Z        PSCENC =       529.51708554
  Ewald energy   TEWEN  =     -9392.49184515
  -Hartree energ DENC   =     -2828.73392566
  -exchange      EXHF   =         0.00000000
  -V(xc)+E(xc)   XCENC  =        75.88456524
  PAW double counting   =     12862.81682353   -13206.23406309
  entropy T*S    EENTRO =        -0.00344094
  eigenvalues    EBANDS =       627.09105237
  atomic energy  EATOM  =     11229.46195210
  Solvation  Ediel_sol  =         0.00000000
  ---------------------------------------------------
  free energy    TOTEN  =      -102.69179606 eV

  energy without entropy =     -102.68835512  energy(sigma->0) =     -102.69007559


--------------------------------------------------------------------------------------------------------




--------------------------------------- Iteration      1(  14)  ---------------------------------------


    POTLOK:  cpu time    0.1037: real time    0.1044
    SETDIJ:  cpu time    0.0376: real time    0.0376
    EDDIAG:  cpu time    3.3983: real time    3.4025
  RMM-DIIS:  cpu time   12.4290: real time   12.4497
    ORTHCH:  cpu time    0.6391: real time    0.6397
       DOS:  cpu time    0.0037: real time    0.0038
    CHARGE:  cpu time    0.6808: real time    0.6816
    MIXING:  cpu time    0.0025: real time    0.0025
    --------------------------------------------
      LOOP:  cpu time   17.2947: real time   17.3218

 eigenvalue-minimisations  : 15558
 total energy-change (2. order) : 0.1434481E-02  (-0.4597180E-02)
 number of electron     127.9999558 magnetization       0.2567963
 augmentation part       67.8126127 magnetization       0.2045737

 Broyden mixing:
  rms(total) = 0.88569E-01    rms(broyden)= 0.88567E-01
  rms(prec ) = 0.11910E+00
  weight for this iteration     100.00

 eigenvalues of (default mixing * dielectric matrix)
  average eigenvalue GAMMA=   0.7865
  2.3477  1.0560  1.0560  0.7096  0.7096  0.5328  0.1445  0.2226  0.2994

 Free energy of the ion-electron system (eV)
  ---------------------------------------------------
  alpha Z        PSCENC =       529.51708554
  Ewald energy   TEWEN  =     -9392.49184515
  -Hartree energ DENC   =     -2828.48300143
  -exchange      EXHF   =         0.00000000
  -V(xc)+E(xc)   XCENC  =        75.90571162
  PAW double counting   =     12913.93507421   -13257.78119897
  entropy T*S    EENTRO =        -0.00358987
  eigenvalues    EBANDS =       627.24945037
  atomic energy  EATOM  =     11229.46195210
  Solvation  Ediel_sol  =         0.00000000
  ---------------------------------------------------
  free energy    TOTEN  =      -102.69036158 eV

  energy without entropy =     -102.68677170  energy(sigma->0) =     -102.68856664


--------------------------------------------------------------------------------------------------------




--------------------------------------- Iteration      1(  15)  ---------------------------------------


    POTLOK:  cpu time    0.0982: real time    0.0983
    SETDIJ:  cpu time    0.0360: real time    0.0360
    EDDIAG:  cpu time    3.3722: real time    3.3763
  RMM-DIIS:  cpu time   10.9124: real time   10.9279
    ORTHCH:  cpu time    0.6358: real time    0.6366
       DOS:  cpu time    0.0038: real time    0.0038
    CHARGE:  cpu time    0.6851: real time    0.6858
    MIXING:  cpu time    0.0026: real time    0.0027
    --------------------------------------------
      LOOP:  cpu time   15.7462: real time   15.7674

 eigenvalue-minimisations  : 13819
 total energy-change (2. order) :-0.2759986E-02  (-0.1624205E-02)
 number of electron     127.9999559 magnetization       0.1920713
 augmentation part       67.8163880 magnetization       0.1840378

 Broyden mixing:
  rms(total) = 0.67296E-01    rms(broyden)= 0.67292E-01
  rms(prec ) = 0.94169E-01
  weight for this iteration     100.00

 eigenvalues of (default mixing * dielectric matrix)
  average eigenvalue GAMMA=   0.7833
  2.4112  1.3446  0.8238  0.8238  0.8218  0.5707  0.1445  0.2226  0.3018  0.3680

 Free energy of the ion-electron system (eV)
  ---------------------------------------------------
  alpha Z        PSCENC =       529.51708554
  Ewald energy   TEWEN  =     -9392.49184515
  -Hartree energ DENC   =     -2828.11614249
  -exchange      EXHF   =         0.00000000
  -V(xc)+E(xc)   XCENC  =        76.00903072
  PAW double counting   =     12938.97706719   -13282.93882272
  entropy T*S    EENTRO =        -0.00386007
  eigenvalues    EBANDS =       626.89241332
  atomic energy  EATOM  =     11229.46195210
  Solvation  Ediel_sol  =         0.00000000
  ---------------------------------------------------
  free energy    TOTEN  =      -102.69312156 eV

  energy without entropy =     -102.68926149  energy(sigma->0) =     -102.69119153


--------------------------------------------------------------------------------------------------------




--------------------------------------- Iteration      1(  16)  ---------------------------------------


    POTLOK:  cpu time    0.0980: real time    0.0981
    SETDIJ:  cpu time    0.0360: real time    0.0360
    EDDIAG:  cpu time    3.3832: real time    3.3878
  RMM-DIIS:  cpu time   11.1055: real time   11.1273
    ORTHCH:  cpu time    0.6360: real time    0.6367
       DOS:  cpu time    0.0038: real time    0.0038
    CHARGE:  cpu time    0.6852: real time    0.6861
    MIXING:  cpu time    0.0027: real time    0.0027
    --------------------------------------------
      LOOP:  cpu time   15.9504: real time   15.9786

 eigenvalue-minimisations  : 13946
 total energy-change (2. order) : 0.4937216E-03  (-0.5800567E-03)
 number of electron     127.9999559 magnetization       0.1242132
 augmentation part       67.8459404 magnetization       0.0828617

 Broyden mixing:
  rms(total) = 0.32212E-01    rms(broyden)= 0.32212E-01
  rms(prec ) = 0.38482E-01
  weight for this iteration     100.00

 eigenvalues of (default mixing * dielectric matrix)
  average eigenvalue GAMMA=   0.8694
  2.4881  2.1866  0.9809  0.9809  0.7053  0.7053  0.5342  0.1445  0.2226  0.3013
  0.3136

 Free energy of the ion-electron system (eV)
  ---------------------------------------------------
  alpha Z        PSCENC =       529.51708554
  Ewald energy   TEWEN  =     -9392.49184515
  -Hartree energ DENC   =     -2827.68829890
  -exchange      EXHF   =         0.00000000
  -V(xc)+E(xc)   XCENC  =        76.03888136
  PAW double counting   =     12944.04777353   -13287.89165853
  entropy T*S    EENTRO =        -0.00383451
  eigenvalues    EBANDS =       626.31731672
  atomic energy  EATOM  =     11229.46195210
  Solvation  Ediel_sol  =         0.00000000
  ---------------------------------------------------
  free energy    TOTEN  =      -102.69262784 eV

  energy without entropy =     -102.68879333  energy(sigma->0) =     -102.69071058


--------------------------------------------------------------------------------------------------------




--------------------------------------- Iteration      1(  17)  ---------------------------------------


    POTLOK:  cpu time    0.0978: real time    0.0980
    SETDIJ:  cpu time    0.0356: real time    0.0356
    EDDIAG:  cpu time    3.3964: real time    3.4008
  RMM-DIIS:  cpu time   12.0863: real time   12.1032
    ORTHCH:  cpu time    0.6370: real time    0.6376
       DOS:  cpu time    0.0038: real time    0.0038
    CHARGE:  cpu time    0.6919: real time    0.6927
    MIXING:  cpu time    0.0030: real time    0.0030
    --------------------------------------------
      LOOP:  cpu time   16.9517: real time   16.9748

 eigenvalue-minimisations  : 15282
 total energy-change (2. order) :-0.1225326E-03  (-0.1730654E-03)
 number of electron     127.9999559 magnetization       0.1044739
 augmentation part       67.8399268 magnetization       0.0696719

 Broyden mixing:
  rms(total) = 0.12857E-01    rms(broyden)= 0.12855E-01
  rms(prec ) = 0.20084E-01
  weight for this iteration     100.00

 eigenvalues of (default mixing * dielectric matrix)
  average eigenvalue GAMMA=   0.9140
  2.5490  2.5490  1.0363  1.0363  0.7885  0.7885  0.7014  0.5381  0.1445  0.2226
  0.3003  0.3130

 Free energy of the ion-electron system (eV)
  ---------------------------------------------------
  alpha Z        PSCENC =       529.51708554
  Ewald energy   TEWEN  =     -9392.49184515
  -Hartree energ DENC   =     -2827.91674768
  -exchange      EXHF   =         0.00000000
  -V(xc)+E(xc)   XCENC  =        76.09358505
  PAW double counting   =     12945.51091502   -13289.29513316
  entropy T*S    EENTRO =        -0.00393361
  eigenvalues    EBANDS =       626.43137152
  atomic energy  EATOM  =     11229.46195210
  Solvation  Ediel_sol  =         0.00000000
  ---------------------------------------------------
  free energy    TOTEN  =      -102.69275037 eV

  energy without entropy =     -102.68881677  energy(sigma->0) =     -102.69078357


--------------------------------------------------------------------------------------------------------




--------------------------------------- Iteration      1(  18)  ---------------------------------------


    POTLOK:  cpu time    0.1147: real time    0.1164
    SETDIJ:  cpu time    0.0373: real time    0.0375
    EDDIAG:  cpu time    3.4315: real time    3.4367
  RMM-DIIS:  cpu time   11.2537: real time   11.2687
    ORTHCH:  cpu time    0.6355: real time    0.6360
       DOS:  cpu time    0.0039: real time    0.0039
    CHARGE:  cpu time    0.6946: real time    0.6951
    MIXING:  cpu time    0.0032: real time    0.0032
    --------------------------------------------
      LOOP:  cpu time   16.1743: real time   16.1975

 eigenvalue-minimisations  : 14015
 total energy-change (2. order) : 0.5101990E-04  (-0.3135541E-04)
 number of electron     127.9999559 magnetization       0.0824259
[...]
     79      10.7193      0.00000
     80      11.1777      0.00000
     81      11.4975      0.00000
     82      11.6290      0.00000
     83      11.7148      0.00000
     84      12.2872      0.00000


--------------------------------------------------------------------------------------------------------


 soft charge-density along one line, spin component           1
         0         1         2         3         4         5         6         7         8         9
 total charge-density along one line

 soft charge-density along one line, spin component           2
         0         1         2         3         4         5         6         7         8         9
 total charge-density along one line

 pseudopotential strength for first ion, spin component:           1
 -1.641  -0.005   0.001  -0.005   0.000  -2.277  -0.005   0.002
 -0.005  -1.639   0.001  -0.005  -0.002  -0.005  -2.275   0.001
  0.001   0.001  -1.625   0.001   0.000   0.002   0.001  -2.261
 -0.005  -0.005   0.001  -1.639   0.002  -0.005  -0.005   0.001
  0.000  -0.002   0.000   0.002  -1.640   0.000  -0.002   0.000
 -2.277  -0.005   0.002  -0.005   0.000  -2.843  -0.005   0.002
 -0.005  -2.275   0.001  -0.005  -0.002  -0.005  -2.841   0.001
  0.002   0.001  -2.261   0.001   0.000   0.002   0.001  -2.828
 -0.005  -0.005   0.001  -2.275   0.002  -0.005  -0.005   0.001
  0.000  -0.002   0.000   0.002  -2.276   0.000  -0.002   0.000
 -0.001  -0.002  -0.001  -0.002   0.000  -0.001  -0.002  -0.001
 -0.003  -0.004  -0.001  -0.004   0.000  -0.002  -0.003  -0.001
 -0.002   0.006   0.000  -0.001   0.000  -0.002   0.006   0.000
 -0.001  -0.002   0.001  -0.002  -0.000  -0.001  -0.002   0.001
 -0.002  -0.001   0.000   0.006  -0.000  -0.002  -0.001   0.000
 -0.003   0.008   0.000  -0.002   0.001  -0.003   0.008   0.000
 -0.002  -0.003   0.002  -0.003  -0.000  -0.002  -0.003   0.002
 -0.003  -0.002   0.000   0.008  -0.001  -0.003  -0.002   0.000
 pseudopotential strength for first ion, spin component:           2
 -1.636  -0.005   0.001  -0.005   0.000  -2.272  -0.005   0.001
 -0.005  -1.634   0.001  -0.004  -0.002  -0.005  -2.270   0.001
  0.001   0.001  -1.616   0.001   0.000   0.001   0.001  -2.253
 -0.005  -0.004   0.001  -1.634   0.002  -0.005  -0.005   0.001
  0.000  -0.002   0.000   0.002  -1.632   0.000  -0.002   0.000
 -2.272  -0.005   0.001  -0.005   0.000  -2.839  -0.005   0.002
 -0.005  -2.270   0.001  -0.005  -0.002  -0.005  -2.837   0.001
  0.001   0.001  -2.253   0.001   0.000   0.002   0.001  -2.819
 -0.005  -0.005   0.001  -2.270   0.002  -0.005  -0.005   0.001
  0.000  -0.002   0.000   0.002  -2.268   0.000  -0.002   0.000
 -0.001  -0.002  -0.001  -0.002   0.000  -0.001  -0.002  -0.001
 -0.003  -0.004  -0.001  -0.004   0.000  -0.002  -0.003  -0.001
  0.002  -0.006  -0.000   0.001  -0.000   0.002  -0.005  -0.000
  0.001   0.002  -0.001   0.002  -0.000   0.001   0.002  -0.001
  0.002   0.001  -0.000  -0.006   0.000   0.002   0.001  -0.000
  0.003  -0.008  -0.000   0.002  -0.001   0.002  -0.008  -0.000
  0.002   0.003  -0.001   0.003  -0.000   0.002   0.003  -0.001
  0.003   0.002  -0.000  -0.008   0.001   0.002   0.002  -0.000
 total augmentation occupancy for first ion, spin component:           1
  2.069   0.044   0.051   0.044  -0.000  -0.551  -0.061  -0.042  -0.061   0.000  -0.104   0.037  -0.000  -0.000  -0.000   0.000
  0.044   1.945  -0.013   0.089   0.012  -0.061  -0.475   0.016  -0.089  -0.020  -0.106   0.039  -0.000  -0.000   0.000   0.000
  0.051  -0.013   2.750  -0.013   0.000  -0.042   0.016  -1.030   0.016   0.000  -0.039  -0.005  -0.000   0.001  -0.000   0.000
  0.044   0.089  -0.013   1.945  -0.012  -0.061  -0.089   0.016  -0.475   0.020  -0.106   0.039   0.000  -0.000  -0.000  -0.000
 -0.000   0.012   0.000  -0.012   2.567  -0.000  -0.020  -0.000   0.020  -0.908  -0.000   0.000   0.000   0.000  -0.000   0.000
 -0.551  -0.061  -0.042  -0.061  -0.000   0.838   0.071   0.023   0.071   0.000   0.064  -0.024   0.000  -0.000   0.000  -0.000
 -0.061  -0.475   0.016  -0.089  -0.020   0.071   0.791  -0.009   0.088   0.011   0.064  -0.025   0.000   0.000  -0.000  -0.000
 -0.042   0.016  -1.030   0.016   0.000   0.023  -0.009   1.074  -0.009   0.000   0.021   0.004   0.000  -0.000   0.000  -0.000
 -0.061  -0.089   0.016  -0.475   0.020   0.071   0.088  -0.009   0.791  -0.011   0.064  -0.025  -0.000   0.000   0.000   0.000
  0.000  -0.020   0.000   0.020  -0.908   0.000   0.011   0.000  -0.011   0.993   0.000   0.000   0.000   0.000  -0.000  -0.000
 -0.104  -0.106  -0.039  -0.106   0.000   0.064   0.064   0.021   0.064  -0.000   2.103  -0.284   0.000  -0.000   0.000  -0.000
  0.037   0.039  -0.005   0.039  -0.000  -0.024  -0.025   0.004  -0.025   0.000  -0.284   0.049  -0.000  -0.000  -0.000   0.000
 -0.000  -0.000  -0.000   0.000   0.000   0.000   0.000   0.000  -0.000   0.000   0.000  -0.000   0.252   0.001   0.002  -0.026
 -0.000  -0.000   0.001  -0.000   0.000  -0.000   0.000  -0.000   0.000   0.000  -0.000  -0.000   0.001   0.255   0.001  -0.002
 -0.000   0.000  -0.000  -0.000  -0.000   0.000  -0.000   0.000   0.000  -0.000   0.000  -0.000   0.002   0.001   0.252  -0.002
  0.000   0.000   0.000  -0.000   0.000  -0.000  -0.000  -0.000   0.000  -0.000  -0.000   0.000  -0.026  -0.002  -0.002   0.003
 -0.000   0.000   0.000   0.000   0.000   0.000  -0.000  -0.000  -0.000   0.000   0.000  -0.000  -0.002  -0.026  -0.002   0.001
  0.000  -0.000   0.000   0.000  -0.000  -0.000   0.000  -0.000  -0.000   0.000  -0.000   0.000  -0.002  -0.002  -0.026   0.001
 total augmentation occupancy for first ion, spin component:           2
  0.003   0.000  -0.000   0.000   0.000  -0.001  -0.000   0.000  -0.000   0.000  -0.000   0.000   0.033   0.041   0.033  -0.001
  0.000   0.003  -0.002   0.000  -0.000  -0.000  -0.001   0.001  -0.000   0.000   0.000   0.000  -0.118   0.044   0.044   0.004
 -0.000  -0.002   0.021  -0.002   0.000   0.000   0.001  -0.011   0.001   0.000  -0.002  -0.000   0.007   0.062   0.007   0.000
  0.000   0.000  -0.002   0.003   0.000  -0.000  -0.000   0.001  -0.001  -0.000   0.000   0.000   0.044   0.044  -0.118  -0.001
  0.000  -0.000   0.000   0.000   0.018  -0.000   0.000   0.000  -0.000  -0.009   0.000   0.000   0.018   0.000  -0.018  -0.000
 -0.001  -0.000   0.000  -0.000  -0.000  -0.000   0.000  -0.000   0.000  -0.000   0.000  -0.000  -0.021  -0.030  -0.021   0.002
 -0.000  -0.001   0.001  -0.000   0.000   0.000  -0.000  -0.001   0.000  -0.000  -0.000  -0.000   0.072  -0.026  -0.032  -0.008
  0.000   0.001  -0.011   0.001   0.000  -0.000  -0.001   0.004  -0.001   0.000   0.001   0.000  -0.008  -0.058  -0.008   0.000
 -0.000  -0.000   0.001  -0.001  -0.000   0.000   0.000  -0.001  -0.000   0.000  -0.000  -0.000  -0.032  -0.026   0.072   0.003
  0.000   0.000   0.000  -0.000  -0.009   0.000  -0.000   0.000   0.000   0.004   0.000   0.000  -0.016  -0.000   0.016   0.000
 -0.000   0.000  -0.002   0.000   0.000   0.000  -0.000   0.001  -0.000   0.000   0.000   0.001   0.005  -0.014   0.005   0.001
  0.000   0.000  -0.000   0.000   0.000  -0.000  -0.000   0.000  -0.000   0.000   0.001  -0.000   0.002  -0.006   0.002  -0.000
  0.033  -0.118   0.007   0.044   0.018  -0.021   0.072  -0.008  -0.032  -0.016   0.005   0.002   0.000  -0.000   0.000   0.000
  0.041   0.044   0.062   0.044   0.000  -0.030  -0.026  -0.058  -0.026  -0.000  -0.014  -0.006  -0.000   0.000  -0.000   0.000
  0.033   0.044   0.007  -0.118  -0.018  -0.021  -0.032  -0.008   0.072   0.016   0.005   0.002   0.000  -0.000   0.000  -0.000
 -0.001   0.004   0.000  -0.001  -0.000   0.002  -0.008   0.000   0.003   0.000   0.001  -0.000   0.000   0.000  -0.000  -0.000
 -0.001  -0.002   0.000  -0.002   0.000   0.002   0.003   0.001   0.003   0.000  -0.004   0.001   0.000   0.000   0.000  -0.000
 -0.001  -0.001   0.000   0.004   0.000   0.002   0.003   0.000  -0.008  -0.000   0.001  -0.000  -0.000   0.000   0.000  -0.000


------------------------ aborting loop because EDIFF is reached ----------------------------------------





 total charge     

# of ion       s       p       d       tot
------------------------------------------
    1        0.460   0.417   8.406   9.283
    2        0.465   0.418   8.378   9.261
    3        0.467   0.419   8.358   9.244
    4        0.466   0.418   8.399   9.283
    5        0.466   0.418   8.399   9.283
    6        0.467   0.419   8.358   9.244
    7        0.465   0.418   8.378   9.261
    8        0.460   0.417   8.406   9.283
    9        0.323   0.307   4.946   5.576
   10        0.327   0.310   4.941   5.578
   11        0.333   0.314   4.931   5.579
   12        0.327   0.310   4.940   5.577
   13        0.334   0.314   4.930   5.578
   14        0.323   0.307   4.948   5.577
   15        1.264   1.822   0.349   3.435
   16        1.264   1.822   0.349   3.435
--------------------------------------------------
tot          8.211   8.848  97.417 114.476



 magnetization (x)

# of ion       s       p       d       tot
------------------------------------------
    1        0.001   0.000   0.006   0.007
    2        0.001   0.000   0.007   0.008
    3        0.000   0.000   0.007   0.008
    4        0.000   0.000   0.006   0.007
    5        0.000   0.000   0.006   0.007
    6        0.000   0.000   0.007   0.008
    7        0.001   0.000   0.007   0.008
    8        0.001   0.000   0.006   0.007
    9       -0.031  -0.023  -3.571  -3.625
   10       -0.026  -0.010  -3.583  -3.619
   11       -0.036  -0.019  -3.517  -3.573
   12        0.026   0.011   3.582   3.619
   13        0.037   0.019   3.521   3.577
   14        0.031   0.023   3.571   3.625
   15        0.006   0.019   0.002   0.027
   16       -0.006  -0.019  -0.002  -0.027
--------------------------------------------------
tot          0.005   0.003   0.056   0.063

    CHARGE:  cpu time    0.6759: real time    0.6764
    FORLOC:  cpu time    0.0073: real time    0.0073
    FORNL :  cpu time    5.0362: real time    5.0407
    STRESS:  cpu time   15.2032: real time   15.2164
    FORCOR:  cpu time    0.1007: real time    0.1008
    FORHAR:  cpu time    0.0167: real time    0.0167
    MIXING:  cpu time    0.0033: real time    0.0033
    OFIELD:  cpu time    0.0000: real time    0.0000

  FORCE on cell =-STRESS in cart. coord.  units (eV):
  Direction    XX          YY          ZZ          XY          YZ          ZX
  --------------------------------------------------------------------------------------
  Alpha Z   529.51709   529.51709   529.51709
  Ewald   -3130.84000 -3130.84000 -3130.84000    -0.00000    -0.00000    -0.00000
  Hartree   943.07585   943.07585   941.88541    -0.00000    -0.00000    -0.00000
  E(xc)    -671.77854  -671.77854  -671.10901    -0.00000    -0.00000     0.00000
  Local    -166.85213  -166.85213  -160.44509    -0.00000     0.00000     0.00000
  n-local  -149.51086  -146.63155  -149.50410    -0.10788    -0.26570    -0.06575
  augment  1580.75880  1580.75880  1578.53884     0.00000    -0.00000     0.00000
  Kinetic  1055.29271  1075.10591  1059.58847    -0.07126     1.66161     1.37825
  Fock        0.00000     0.00000     0.00000     0.00000     0.00000     0.00000
  -------------------------------------------------------------------------------------
  Total       1.00917     1.00917    -2.36839     0.00000     0.00000     0.00000
  in kB       7.60863     7.60863   -17.85653     0.00000     0.00000     0.00000
  external pressure =       -0.88 kB  Pullay stress =        0.00 kB


 VOLUME and BASIS-vectors are now :
 -----------------------------------------------------------------------------
  energy-cutoff  :      550.00
  volume of cell :      212.50
      direct lattice vectors                 reciprocal lattice vectors
     5.967454639  0.000000000  0.000000000     0.167575635  0.000000000  0.000000000
     0.000000000  5.967454639  0.000000000     0.000000000  0.167575635  0.000000000
     0.000000000  0.000000000  5.967454639     0.000000000  0.000000000  0.167575635

  length of vectors
     5.967454639  5.967454639  5.967454639     0.167575635  0.167575635  0.167575635


 FORCES acting on ions
    electron-ion (+dipol)            ewald-force                    non-local-force                 convergence-correction
 -----------------------------------------------------------------------------------------------
   0.738E-02 0.738E-02 0.479E-02   0.391E-13 0.000E+00 0.107E-13   -.647E-02 -.647E-02 0.172E-01   -.168E-02 -.168E-02 -.205E-01
   -.738E-02 0.738E-02 0.479E-02   0.284E-13 0.391E-13 0.142E-13   0.647E-02 -.647E-02 0.172E-01   0.168E-02 -.168E-02 -.205E-01
   0.738E-02 -.738E-02 0.479E-02   0.284E-13 0.355E-14 -.213E-13   -.647E-02 0.647E-02 0.172E-01   -.168E-02 0.168E-02 -.205E-01
   -.738E-02 -.738E-02 0.479E-02   0.711E-14 -.320E-13 -.142E-13   0.647E-02 0.647E-02 0.172E-01   0.168E-02 0.168E-02 -.205E-01
   0.738E-02 0.738E-02 -.479E-02   0.213E-13 -.320E-13 0.142E-13   -.647E-02 -.647E-02 -.172E-01   -.168E-02 -.168E-02 0.205E-01
   -.738E-02 0.738E-02 -.479E-02   0.426E-13 0.355E-14 -.711E-14   0.647E-02 -.647E-02 -.172E-01   0.168E-02 -.168E-02 0.205E-01
   0.738E-02 -.738E-02 -.479E-02   -.142E-13 0.391E-13 0.284E-13   -.647E-02 0.647E-02 -.172E-01   -.168E-02 0.168E-02 0.205E-01
   -.738E-02 -.738E-02 -.479E-02   0.533E-13 0.000E+00 0.107E-13   0.647E-02 0.647E-02 -.172E-01   0.168E-02 0.168E-02 0.205E-01
   0.199E-12 -.149E-13 -.939E-12   -.262E-13 0.105E-13 -.329E-13   0.000E+00 0.000E+00 0.000E+00   0.268E-15 0.425E-13 0.303E-13
   0.198E-12 0.172E-12 0.223E-12   -.290E-13 0.188E-13 -.220E-14   0.000E+00 0.000E+00 0.000E+00   0.109E-13 -.435E-13 0.283E-13
   -.249E-13 0.208E-12 -.372E-13   -.294E-13 0.170E-13 0.523E-13   0.000E+00 0.000E+00 0.000E+00   -.218E-14 -.541E-13 0.344E-13
   -.252E-13 -.536E-13 0.175E-12   -.319E-13 0.104E-13 0.290E-14   0.000E+00 0.000E+00 0.000E+00   0.277E-13 0.302E-13 -.186E-13
   0.195E-12 -.342E-13 0.858E-12   -.225E-13 0.129E-13 0.337E-13   0.000E+00 0.000E+00 0.000E+00   -.142E-13 0.298E-13 -.264E-13
   -.195E-13 0.208E-12 0.163E-12   -.325E-13 0.169E-13 -.657E-13   0.000E+00 0.000E+00 0.000E+00   0.270E-13 -.254E-13 -.139E-13
   -.306E-13 -.185E-13 -.436E-14   -.461E-13 -.843E-14 -.169E-14   0.000E+00 0.000E+00 0.000E+00   0.440E-14 0.157E-13 0.901E-14
   -.346E-13 -.255E-12 -.650E-12   -.445E-13 -.107E-13 0.172E-13   0.000E+00 0.000E+00 0.000E+00   -.823E-14 -.120E-13 -.818E-14
 -----------------------------------------------------------------------------------------------
   0.621E-11 0.703E-11 0.815E-11   -.559E-13 0.887E-13 0.392E-13   0.260E-17 0.867E-18 -.278E-16   0.169E-12 0.186E-12 -.245E-12


 POSITION                                       TOTAL-FORCE (eV/Angst)
 -----------------------------------------------------------------------------------
      1.49186      1.49186      1.49186        -0.000779     -0.000779      0.001474
      4.47559      1.49186      1.49186         0.000779     -0.000779      0.001474
      1.49186      4.47559      1.49186        -0.000779      0.000779      0.001474
      4.47559      4.47559      1.49186         0.000779      0.000779      0.001474
      1.49186      1.49186      4.47559        -0.000779     -0.000779     -0.001474
      4.47559      1.49186      4.47559         0.000779     -0.000779     -0.001474
      1.49186      4.47559      4.47559        -0.000779      0.000779     -0.001474
      4.47559      4.47559      4.47559         0.000779      0.000779     -0.001474
      2.98373      0.00000      0.00000        -0.000000     -0.000000      0.000000
      2.98373      2.98373      0.00000        -0.000000     -0.000000      0.000000
      0.00000      2.98373      0.00000        -0.000000     -0.000000      0.000000
      0.00000      0.00000      2.98373        -0.000000     -0.000000      0.000000
      2.98373      0.00000      2.98373        -0.000000     -0.000000      0.000000
      0.00000      2.98373      2.98373        -0.000000     -0.000000      0.000000
      0.00000      0.00000      0.00000        -0.000000     -0.000000      0.000000
      2.98373      2.98373      2.98373        -0.000000     -0.000000      0.000000
 -----------------------------------------------------------------------------------
    total drift:                                0.000000      0.000000      0.000000


--------------------------------------------------------------------------------------------------------



  FREE ENERGIE OF THE ION-ELECTRON SYSTEM (eV)
  ---------------------------------------------------
  free  energy   TOTEN  =      -102.69270156 eV

  energy  without entropy=     -102.68870212  energy(sigma->0) =     -102.69070184



--------------------------------------------------------------------------------------------------------


    POTLOK:  cpu time    0.1338: real time    0.1339


--------------------------------------------------------------------------------------------------------




--------------------------------------------------------------------------------------------------------


  
 reached required accuracy - stopping structural energy minimisation
     LOOP+:  cpu time  382.5603: real time  383.1286
    4ORBIT:  cpu time    0.0000: real time    0.0000



 total charge     

# of ion       s       p       d       tot
------------------------------------------
    1        0.460   0.417   8.406   9.283
    2        0.465   0.418   8.378   9.261
    3        0.467   0.419   8.358   9.244
    4        0.466   0.418   8.399   9.283
    5        0.466   0.418   8.399   9.283
    6        0.467   0.419   8.358   9.244
    7        0.465   0.418   8.378   9.261
    8        0.460   0.417   8.406   9.283
    9        0.323   0.307   4.946   5.576
   10        0.327   0.310   4.941   5.578
   11        0.333   0.314   4.931   5.579
   12        0.327   0.310   4.940   5.577
   13        0.334   0.314   4.930   5.578
   14        0.323   0.307   4.948   5.577
   15        1.264   1.822   0.349   3.435
   16        1.264   1.822   0.349   3.435
--------------------------------------------------
tot          8.211   8.848  97.417 114.476



 magnetization (x)

# of ion       s       p       d       tot
------------------------------------------
    1        0.001   0.000   0.006   0.007
    2        0.001   0.000   0.007   0.008
    3        0.000   0.000   0.007   0.008
    4        0.000   0.000   0.006   0.007
    5        0.000   0.000   0.006   0.007
    6        0.000   0.000   0.007   0.008
    7        0.001   0.000   0.007   0.008
    8        0.001   0.000   0.006   0.007
    9       -0.031  -0.023  -3.571  -3.625
   10       -0.026  -0.010  -3.583  -3.619
   11       -0.036  -0.019  -3.517  -3.573
   12        0.026   0.011   3.582   3.619
   13        0.037   0.019   3.521   3.577
   14        0.031   0.023   3.571   3.625
   15        0.006   0.019   0.002   0.027
   16       -0.006  -0.019  -0.002  -0.027
--------------------------------------------------
tot          0.005   0.003   0.056   0.063


 total amount of memory used by VASP MPI-rank0   103772. kBytes
=======================================================================

   base      :      30000. kBytes
   nonlr-proj:       6835. kBytes
   fftplans  :       1269. kBytes
   grid      :       6573. kBytes
   one-center:        497. kBytes
   wavefun   :      58598. kBytes

  
  
 General timing and accounting informations for this job:
 ========================================================
  
                  Total CPU time used (sec):      393.198
                            User time (sec):      372.082
                          System time (sec):       21.116
                         Elapsed time (sec):      394.343
  
                   Maximum memory used (kb):      138236.
                   Average memory used (kb):           0.
  
                          Minor page faults:      9626943
                          Major page faults:            9
                 Voluntary context switches:         1792
