 vasp.5.4.4.18Apr17-6-g9f103f2a35 (build May 21 2018 20:56:50) complex           
 executed on             LinuxGNU date 2021.10.15  15:42:03
 running on   12 total cores
 distrk:  each k-point on   12 cores,    1 groups
 distr:  one band on NCORES_PER_BAND=   1 cores,   12 groups


--------------------------------------------------------------------------------------------------------


 INCAR:
 POTCAR:    PAW_PBE Ni 02Aug2007                  
 POTCAR:    PAW_PBE Mn 06Sep2000                  
 POTCAR:    PAW_PBE In 08Apr2002                  

 ----------------------------------------------------------------------------- 
|                                                                             |
|           W    W    AA    RRRRR   N    N  II  N    N   GGGG   !!!           |
|           W    W   A  A   R    R  NN   N  II  NN   N  G    G  !!!           |
|           W    W  A    A  R    R  N N  N  II  N N  N  G       !!!           |
|           W WW W  AAAAAA  RRRRR   N  N N  II  N  N N  G  GGG   !            |
|           WW  WW  A    A  R   R   N   NN  II  N   NN  G    G                |
|           W    W  A    A  R    R  N    N  II  N    N   GGGG   !!!           |
|                                                                             |
|      For optimal performance we recommend to set                            |
|        NCORE= 4 - approx SQRT( number of cores)                             |
|      NCORE specifies how many cores store one orbital (NPAR=cpu/NCORE).     |
|      This setting can  greatly improve the performance of VASP for DFT.     |
|      The default,   NCORE=1            might be grossly inefficient         |
|      on modern multi-core architectures or massively parallel machines.     |
|      Do your own testing !!!!                                               |
|      Unfortunately you need to use the default for GW and RPA calculations. |
|      (for HF NCORE is supported but not extensively tested yet)             |
|                                                                             |
 ----------------------------------------------------------------------------- 

 POTCAR:    PAW_PBE Ni 02Aug2007                  
   VRHFIN =Ni:                                                                  
   LEXCH  = PE                                                                  
   EATOM  =  1077.6739 eV,   79.2068 Ry                                         
                                                                                
   TITEL  = PAW_PBE Ni 02Aug2007                                                
   LULTRA =        F    use ultrasoft PP ?                                      
   IUNSCR =        1    unscreen: 0-lin 1-nonlin 2-no                           
   RPACOR =    2.000    partial core radius                                     
   POMASS =   58.690; ZVAL   =   10.000    mass and valenz                      
   RCORE  =    2.300    outmost cutoff radius                                   
   RWIGS  =    2.430; RWIGS  =    1.286    wigner-seitz radius (au A)           
   ENMAX  =  269.532; ENMIN  =  202.149 eV                                      
   RCLOC  =    1.201    cutoff for local pot                                    
   LCOR   =        T    correct aug charges                                     
   LPAW   =        T    paw PP                                                  
   EAUG   =  544.565                                                            
   DEXC   =    0.000                                                            
   RMAX   =    2.357    core radius for proj-oper                               
   RAUG   =    1.300    factor for augmentation sphere                          
   RDEP   =    2.390    radius for radial grids                                 
   RDEPT  =    1.838    core radius for aug-charge                              
                                                                                
   Atomic configuration                                                         
    9 entries                                                                   
     n  l   j            E        occ.                                          
     1  0  0.50     -8206.4253   2.0000                                         
     2  0  0.50      -976.1748   2.0000                                         
     2  1  1.50      -839.0571   6.0000                                         
     3  0  0.50      -105.9991   2.0000                                         
     3  1  1.50       -66.4603   6.0000                                         
     3  2  2.50        -4.6458   9.0000                                         
     4  0  0.50        -4.4926   1.0000                                         
     4  1  1.50        -4.0817   0.0000                                         
     4  3  2.50        -1.3606   0.0000                                         
   Description                                                                  
     l       E           TYP  RCUT    TYP  RCUT                                 
     2     -4.6457903     23  2.300                                             
     2     -6.0063729     23  2.300                                             
     0     -4.4925590     23  2.300                                             
     0      5.0102601     23  2.300                                             
     1     -2.7211652     23  2.300                                             
     1     16.5183231     23  2.300                                             
  local pseudopotential read in
  partial core-charges read in
  partial kinetic energy density read in
  atomic valenz-charges read in
  non local Contribution for L=           2  read in
    real space projection operators read in
  non local Contribution for L=           2  read in
    real space projection operators read in
  non local Contribution for L=           0  read in
    real space projection operators read in
  non local Contribution for L=           0  read in
    real space projection operators read in
  non local Contribution for L=           1  read in
    real space projection operators read in
  non local Contribution for L=           1  read in
    real space projection operators read in
    PAW grid and wavefunctions read in

   number of l-projection  operators is LMAX  =           6
   number of lm-projection operators is LMMAX =          18

 POTCAR:    PAW_PBE Mn 06Sep2000                  
   VRHFIN =Mn: d6 s1                                                            
   LEXCH  = PE                                                                  
   EATOM  =   416.7541 eV,   30.6306 Ry                                         
                                                                                
   TITEL  = PAW_PBE Mn 06Sep2000                                                
   LULTRA =        F    use ultrasoft PP ?                                      
   IUNSCR =        1    unscreen: 0-lin 1-nonlin 2-no                           
   RPACOR =    2.000    partial core radius                                     
   POMASS =   54.938; ZVAL   =    7.000    mass and valenz                      
   RCORE  =    2.300    outmost cutoff radius                                   
   RWIGS  =    2.500; RWIGS  =    1.323    wigner-seitz radius (au A)           
   ENMAX  =  269.864; ENMIN  =  202.398 eV                                      
   RCLOC  =    1.725    cutoff for local pot                                    
   LCOR   =        T    correct aug charges                                     
   LPAW   =        T    paw PP                                                  
   EAUG   =  500.711                                                            
   DEXC   =    0.000                                                            
   RMAX   =    2.343    core radius for proj-oper                               
   RAUG   =    1.300    factor for augmentation sphere                          
   RDEP   =    2.338    radius for radial grids                                 
   RDEPT  =    1.911    core radius for aug-charge                              
                                                                                
   Atomic configuration                                                         
    9 entries                                                                   
     n  l   j            E        occ.                                          
     1  0  0.50     -6424.8288   2.0000                                         
     2  0  0.50      -739.1154   2.0000                                         
     2  1  1.50      -625.3949   6.0000                                         
     3  0  0.50       -81.6100   2.0000                                         
     3  1  1.50       -50.4667   6.0000                                         
     3  2  2.50        -3.3745   6.0000                                         
     4  0  0.50        -4.1331   1.0000                                         
     4  1  0.50        -4.0817   0.0000                                         
     4  3  2.50        -1.3606   0.0000                                         
   Description                                                                  
     l       E           TYP  RCUT    TYP  RCUT                                 
     2     -3.3744664     23  2.300                                             
     2     -4.7350490     23  2.300                                             
     0     -4.1331408     23  2.300                                             
     0      7.6656614     23  2.300                                             
     1     -2.7211652     23  2.300                                             
     1     20.4087390     23  2.300                                             
  local pseudopotential read in
  partial core-charges read in
  partial kinetic energy density read in
  atomic valenz-charges read in
  non local Contribution for L=           2  read in
    real space projection operators read in
  non local Contribution for L=           2  read in
    real space projection operators read in
  non local Contribution for L=           0  read in
    real space projection operators read in
  non local Contribution for L=           0  read in
    real space projection operators read in
  non local Contribution for L=           1  read in
    real space projection operators read in
  non local Contribution for L=           1  read in
    real space projection operators read in
    PAW grid and wavefunctions read in

   number of l-projection  operators is LMAX  =           6
   number of lm-projection operators is LMMAX =          18

 POTCAR:    PAW_PBE In 08Apr2002                  
   VRHFIN =In: s2p1                                                             
   LEXCH  = PE                                                                  
   EATOM  =    53.7908 eV,    3.9535 Ry                                         
                                                                                
   TITEL  = PAW_PBE In 08Apr2002                                                
   LULTRA =        F    use ultrasoft PP ?                                      
   IUNSCR =        1    unscreen: 0-lin 1-nonlin 2-no                           
   RPACOR =    2.400    partial core radius                                     
   POMASS =  114.820; ZVAL   =    3.000    mass and valenz                      
   RCORE  =    3.100    outmost cutoff radius                                   
   RWIGS  =    3.170; RWIGS  =    1.677    wigner-seitz radius (au A)           
   ENMAX  =   95.934; ENMIN  =   71.951 eV                                      
   ICORE  =        3    local potential                                         
   LCOR   =        T    correct aug charges                                     
   LPAW   =        T    paw PP                                                  
   EAUG   =  237.125                                                            
   DEXC   =    0.000                                                            
   RMAX   =    3.168    core radius for proj-oper                               
   RAUG   =    1.300    factor for augmentation sphere                          
   RDEP   =    3.187    radius for radial grids                                 
   RDEPT  =    2.711    core radius for aug-charge                              
                                                                                
   Atomic configuration                                                         
   13 entries                                                                   
     n  l   j            E        occ.                                          
     1  0  0.50    -27747.9169   2.0000                                         
     2  0  0.50     -4154.4438   2.0000                                         
     2  1  1.50     -3728.4305   6.0000                                         
     3  0  0.50      -788.3680   2.0000                                         
     3  1  1.50      -648.9215   6.0000                                         
     3  2  2.50      -432.5893  10.0000                                         
     4  0  0.50      -119.6363   2.0000                                         
     4  1  1.50       -78.1086   6.0000                                         
     4  2  2.50       -18.6227  10.0000                                         
     5  0  0.50        -8.2107   2.0000                                         
     5  1  0.50        -2.5185   1.0000                                         
     5  2  2.50        -1.3606   0.0000                                         
     4  3  2.50        -2.7212   0.0000                                         
   Description                                                                  
     l       E           TYP  RCUT    TYP  RCUT                                 
     0     -8.2107306     23  3.100                                             
     0     -6.1485975     23  3.100                                             
     1     -2.5184867     23  3.100                                             
     1      3.2427302     23  3.100                                             
     2     -1.3605826     23  3.100                                             
     3     -1.3605826     23  3.100                                             
  local pseudopotential read in
  partial core-charges read in
  partial kinetic energy density read in
  atomic valenz-charges read in
  non local Contribution for L=           0  read in
    real space projection operators read in
  non local Contribution for L=           0  read in
    real space projection operators read in
  non local Contribution for L=           1  read in
    real space projection operators read in
  non local Contribution for L=           1  read in
    real space projection operators read in
  non local Contribution for L=           2  read in
    real space projection operators read in
    PAW grid and wavefunctions read in

   number of l-projection  operators is LMAX  =           5
   number of lm-projection operators is LMMAX =          13

 Optimization of the real space projectors (new method)

 maximal supplied QI-value         = 16.25
 optimisation between [QCUT,QGAM] = [ 11.86, 23.89] = [ 39.41,159.82] Ry 
 Optimized for a Real-space Cutoff    1.33 Angstroem

   l    n(q)    QCUT    max X(q) W(low)/X(q) W(high)/X(q)  e(spline) 
   2      9    11.864    60.317    0.21E-03    0.51E-03    0.25E-06
   2      9    11.864    55.921    0.21E-03    0.51E-03    0.26E-06
   0      9    11.864    51.690    0.22E-03    0.30E-04    0.17E-06
   0      9    11.864    30.015    0.20E-03    0.28E-04    0.15E-06
   1      9    11.864    18.849    0.76E-04    0.33E-03    0.17E-06
   1      9    11.864    14.624    0.60E-04    0.28E-03    0.15E-06
 Optimization of the real space projectors (new method)

 maximal supplied QI-value         = 16.25
 optimisation between [QCUT,QGAM] = [ 11.86, 23.89] = [ 39.41,159.82] Ry 
 Optimized for a Real-space Cutoff    1.36 Angstroem

   l    n(q)    QCUT    max X(q) W(low)/X(q) W(high)/X(q)  e(spline) 
   2      9    11.864   110.144    0.49E-03    0.50E-03    0.21E-06
   2      9    11.864   103.200    0.49E-03    0.51E-03    0.22E-06
   0     10    11.864    68.437    0.12E-03    0.41E-04    0.21E-06
   0     10    11.864    33.971    0.11E-03    0.36E-04    0.19E-06
   1      9    11.864    17.065    0.24E-03    0.26E-03    0.93E-07
   1      9    11.864    12.540    0.19E-03    0.20E-03    0.80E-07
 Optimization of the real space projectors (new method)

 maximal supplied QI-value         = 12.09
 optimisation between [QCUT,QGAM] = [ 11.97, 23.95] = [ 40.14,160.58] Ry 
 Optimized for a Real-space Cutoff    1.63 Angstroem

   l    n(q)    QCUT    max X(q) W(low)/X(q) W(high)/X(q)  e(spline) 
   0     12    11.973   106.980    0.33E-03    0.16E-03    0.25E-05
   0     12    11.973    81.086    0.37E-03    0.18E-03    0.28E-05
   1     11    11.973    53.097    0.22E-03    0.42E-03    0.40E-05
   1     11    11.973    32.621    0.20E-03    0.40E-03    0.37E-05
   2     11    11.973     8.820    0.30E-03    0.17E-03    0.41E-06
  PAW_PBE Ni 02Aug2007                  :
 energy of atom  1       EATOM=-1077.6739
 kinetic energy error for atom=    0.0027 (will be added to EATOM!!)
  PAW_PBE Mn 06Sep2000                  :
 energy of atom  2       EATOM= -416.7541
 kinetic energy error for atom=    0.0022 (will be added to EATOM!!)
  PAW_PBE In 08Apr2002                  :
 energy of atom  3       EATOM=  -53.7908
 kinetic energy error for atom=    0.0000 (will be added to EATOM!!)


 POSCAR: Ni2MnIn                                 
  positions in direct lattice
  velocities in cartesian coordinates
 exchange correlation table for  LEXCH =        8
   RHO(1)=    0.500       N(1)  =     2000
   RHO(2)=  100.500       N(2)  =     4000



--------------------------------------------------------------------------------------------------------


 ion  position               nearest neighbor table
   1  0.251  0.268  0.265-  13 2.47  14 2.47   9 2.58  10 2.58  12 2.59  11 2.60  16 2.70  15 2.70
                             3 2.77   5 2.80   2 2.98   2 2.99
   2  0.749  0.268  0.265-  13 2.47  14 2.47   9 2.58  10 2.58  12 2.59  11 2.60  16 2.70  15 2.70
                             4 2.77   6 2.80   1 2.98   1 2.99
   3  0.251  0.732  0.265-  13 2.47  14 2.47   9 2.58  10 2.58  12 2.59  11 2.60  16 2.70  15 2.70
                             1 2.77   7 2.80   4 2.98   4 2.99
   4  0.749  0.732  0.265-  13 2.47  14 2.47   9 2.58  10 2.58  12 2.59  11 2.60  16 2.70  15 2.70
                             2 2.77   8 2.80   3 2.98   3 2.99
   5  0.251  0.268  0.735-  13 2.47  14 2.47   9 2.58  10 2.58  12 2.59  11 2.60  16 2.70  15 2.70
                             7 2.77   1 2.80   6 2.98   6 2.99
   6  0.749  0.268  0.735-  13 2.47  14 2.47   9 2.58  10 2.58  12 2.59  11 2.60  16 2.70  15 2.70
                             8 2.77   2 2.80   5 2.98   5 2.99
   7  0.251  0.732  0.735-  13 2.47  14 2.47   9 2.58  10 2.58  12 2.59  11 2.60  16 2.70  15 2.70
                             5 2.77   3 2.80   8 2.98   8 2.99
   8  0.749  0.732  0.735-  13 2.47  14 2.47   9 2.58  10 2.58  12 2.59  11 2.60  16 2.70  15 2.70
                             6 2.77   4 2.80   7 2.98   7 2.99
   9  0.500  0.500  0.000-   1 2.58   2 2.58   3 2.58   4 2.58   5 2.58   6 2.58   7 2.58   8 2.58
                            10 2.98  13 2.98  16 2.98  13 2.98  16 2.98  10 2.98
  10  0.000  0.500  0.000-   1 2.58   2 2.58   3 2.58   4 2.58   5 2.58   6 2.58   7 2.58   8 2.58
                             9 2.98  14 2.98  15 2.98  14 2.98  15 2.98   9 2.98
  11  0.000  0.000  0.500-   1 2.60   2 2.60   3 2.60   4 2.60   5 2.60   6 2.60   7 2.60   8 2.60
                            12 2.98  14 2.98  15 2.98  15 2.98  14 2.98  12 2.98
  12  0.500  0.000  0.500-   1 2.59   2 2.59   3 2.59   4 2.59   5 2.59   6 2.59   7 2.59   8 2.59
                            11 2.98  13 2.98  16 2.98  16 2.98  13 2.98  11 2.98
  13  0.500  0.500  0.500-   1 2.47   2 2.47   3 2.47   4 2.47   5 2.47   6 2.47   7 2.47   8 2.47
                             9 2.98  12 2.98  14 2.98   9 2.98  12 2.98  14 2.98
  14  0.000  0.500  0.500-   1 2.47   2 2.47   3 2.47   4 2.47   5 2.47   6 2.47   7 2.47   8 2.47
                            10 2.98  11 2.98  13 2.98  10 2.98  11 2.98  13 2.98
  15  0.000  0.000  0.000-   1 2.70   2 2.70   3 2.70   4 2.70   5 2.70   6 2.70   7 2.70   8 2.70
                            10 2.98  11 2.98  16 2.98  11 2.98  10 2.98  16 2.98
  16  0.500  0.000  0.000-   1 2.70   2 2.70   3 2.70   4 2.70   5 2.70   6 2.70   7 2.70   8 2.70
                             9 2.98  12 2.98  15 2.98  12 2.98   9 2.98  15 2.98

  LATTYP: Found a simple cubic cell.
 ALAT       =     5.9672994886
  
  Lattice vectors:
  
 A1 = (   5.9672994886,   0.0000000000,   0.0000000000)
 A2 = (   0.0000000000,   5.9672994886,   0.0000000000)
 A3 = (   0.0000000000,   0.0000000000,   5.9672994886)


Analysis of symmetry for initial positions (statically):
=====================================================================
 Subroutine PRICEL returns:
 Original cell was already a primitive cell.
 

 Routine SETGRP: Setting up the symmetry group for a 
 simple cubic supercell.


 Subroutine GETGRP returns: Found  8 space group operations
 (whereof  8 operations were pure point group operations)
 out of a pool of 48 trial point group operations.


The static configuration has the point symmetry D_2h.


Analysis of symmetry for dynamics (positions and initial velocities):
=====================================================================
 Subroutine PRICEL returns:
 Original cell was already a primitive cell.
 

 Routine SETGRP: Setting up the symmetry group for a 
 simple cubic supercell.


 Subroutine GETGRP returns: Found  8 space group operations
 (whereof  8 operations were pure point group operations)
 out of a pool of 48 trial point group operations.


The dynamic configuration has the point symmetry D_2h.


Analysis of structural, dynamic, and magnetic symmetry:
=====================================================================
 Subroutine PRICEL returns:
 Original cell was already a primitive cell.
 

 Routine SETGRP: Setting up the symmetry group for a 
 simple cubic supercell.


 Subroutine GETGRP returns: Found  8 space group operations
 (whereof  8 operations were pure point group operations)
 out of a pool of 48 trial point group operations.


The magnetic configuration has the point symmetry D_2h.


 Subroutine INISYM returns: Found  8 space group operations
 (whereof  8 operations are pure point group operations),
 and found     1 'primitive' translations



 KPOINTS: k-points                                

Automatic generation of k-mesh.
Space group operators:
 irot       det(A)        alpha          n_x          n_y          n_z        tau_x        tau_y        tau_z
    1     1.000000     0.000000     1.000000     0.000000     0.000000     0.000000     0.000000     0.000000
    2    -1.000000     0.000000     1.000000     0.000000     0.000000     0.000000     0.000000     0.000000
    3     1.000000   180.000000     0.000000     0.000000     1.000000     0.000000     0.000000     0.000000
    4    -1.000000   180.000000     0.000000     0.000000     1.000000     0.000000     0.000000     0.000000
    5     1.000000   180.000000     1.000000     0.000000     0.000000     0.000000     0.000000     0.000000
    6    -1.000000   180.000000     1.000000     0.000000     0.000000     0.000000     0.000000     0.000000
    7     1.000000   180.000000     0.000000     1.000000     0.000000     0.000000     0.000000     0.000000
    8    -1.000000   180.000000     0.000000     1.000000     0.000000     0.000000     0.000000     0.000000
 
 Subroutine IBZKPT returns following result:
 ===========================================
 
 Found     64 irreducible k-points:
 
 Following reciprocal coordinates:
            Coordinates               Weight
  0.000000  0.000000  0.000000      1.000000
  0.142857  0.000000  0.000000      2.000000
  0.285714  0.000000  0.000000      2.000000
  0.428571  0.000000  0.000000      2.000000
  0.000000  0.142857  0.000000      2.000000
  0.142857  0.142857  0.000000      4.000000
  0.285714  0.142857  0.000000      4.000000
  0.428571  0.142857  0.000000      4.000000
  0.000000  0.285714  0.000000      2.000000
  0.142857  0.285714  0.000000      4.000000
  0.285714  0.285714  0.000000      4.000000
  0.428571  0.285714  0.000000      4.000000
  0.000000  0.428571  0.000000      2.000000
  0.142857  0.428571  0.000000      4.000000
  0.285714  0.428571  0.000000      4.000000
  0.428571  0.428571  0.000000      4.000000
  0.000000  0.000000  0.142857      2.000000
  0.142857  0.000000  0.142857      4.000000
  0.285714  0.000000  0.142857      4.000000
  0.428571  0.000000  0.142857      4.000000
  0.000000  0.142857  0.142857      4.000000
  0.142857  0.142857  0.142857      8.000000
  0.285714  0.142857  0.142857      8.000000
  0.428571  0.142857  0.142857      8.000000
  0.000000  0.285714  0.142857      4.000000
  0.142857  0.285714  0.142857      8.000000
  0.285714  0.285714  0.142857      8.000000
  0.428571  0.285714  0.142857      8.000000
  0.000000  0.428571  0.142857      4.000000
  0.142857  0.428571  0.142857      8.000000
  0.285714  0.428571  0.142857      8.000000
  0.428571  0.428571  0.142857      8.000000
  0.000000  0.000000  0.285714      2.000000
  0.142857  0.000000  0.285714      4.000000
  0.285714  0.000000  0.285714      4.000000
  0.428571  0.000000  0.285714      4.000000
  0.000000  0.142857  0.285714      4.000000
  0.142857  0.142857  0.285714      8.000000
  0.285714  0.142857  0.285714      8.000000
  0.428571  0.142857  0.285714      8.000000
  0.000000  0.285714  0.285714      4.000000
  0.142857  0.285714  0.285714      8.000000
  0.285714  0.285714  0.285714      8.000000
  0.428571  0.285714  0.285714      8.000000
  0.000000  0.428571  0.285714      4.000000
  0.142857  0.428571  0.285714      8.000000
  0.285714  0.428571  0.285714      8.000000
  0.428571  0.428571  0.285714      8.000000
  0.000000  0.000000  0.428571      2.000000
  0.142857  0.000000  0.428571      4.000000
  0.285714  0.000000  0.428571      4.000000
  0.428571  0.000000  0.428571      4.000000
  0.000000  0.142857  0.428571      4.000000
  0.142857  0.142857  0.428571      8.000000
  0.285714  0.142857  0.428571      8.000000
  0.428571  0.142857  0.428571      8.000000
  0.000000  0.285714  0.428571      4.000000
  0.142857  0.285714  0.428571      8.000000
  0.285714  0.285714  0.428571      8.000000
  0.428571  0.285714  0.428571      8.000000
  0.000000  0.428571  0.428571      4.000000
  0.142857  0.428571  0.428571      8.000000
  0.285714  0.428571  0.428571      8.000000
  0.428571  0.428571  0.428571      8.000000
 
 Following cartesian coordinates:
            Coordinates               Weight
  0.000000  0.000000  0.000000      1.000000
  0.137894  0.000000  0.000000      2.000000
  0.275789  0.000000  0.000000      2.000000
  0.413683  0.000000  0.000000      2.000000
  0.000000  0.137894  0.000000      2.000000
  0.137894  0.137894  0.000000      4.000000
  0.275789  0.137894  0.000000      4.000000
  0.413683  0.137894  0.000000      4.000000
  0.000000  0.275789  0.000000      2.000000
  0.137894  0.275789  0.000000      4.000000
  0.275789  0.275789  0.000000      4.000000
  0.413683  0.275789  0.000000      4.000000
  0.000000  0.413683  0.000000      2.000000
  0.137894  0.413683  0.000000      4.000000
  0.275789  0.413683  0.000000      4.000000
  0.413683  0.413683  0.000000      4.000000
  0.000000  0.000000  0.137894      2.000000
  0.137894  0.000000  0.137894      4.000000
  0.275789  0.000000  0.137894      4.000000
  0.413683  0.000000  0.137894      4.000000
  0.000000  0.137894  0.137894      4.000000
  0.137894  0.137894  0.137894      8.000000
  0.275789  0.137894  0.137894      8.000000
  0.413683  0.137894  0.137894      8.000000
  0.000000  0.275789  0.137894      4.000000
  0.137894  0.275789  0.137894      8.000000
  0.275789  0.275789  0.137894      8.000000
  0.413683  0.275789  0.137894      8.000000
  0.000000  0.413683  0.137894      4.000000
  0.137894  0.413683  0.137894      8.000000
  0.275789  0.413683  0.137894      8.000000
  0.413683  0.413683  0.137894      8.000000
  0.000000  0.000000  0.275789      2.000000
  0.137894  0.000000  0.275789      4.000000
  0.275789  0.000000  0.275789      4.000000
  0.413683  0.000000  0.275789      4.000000
  0.000000  0.137894  0.275789      4.000000
  0.137894  0.137894  0.275789      8.000000
  0.275789  0.137894  0.275789      8.000000
  0.413683  0.137894  0.275789      8.000000
  0.000000  0.275789  0.275789      4.000000
  0.137894  0.275789  0.275789      8.000000
  0.275789  0.275789  0.275789      8.000000
  0.413683  0.275789  0.275789      8.000000
  0.000000  0.413683  0.275789      4.000000
  0.137894  0.413683  0.275789      8.000000
  0.275789  0.413683  0.275789      8.000000
  0.413683  0.413683  0.275789      8.000000
  0.000000  0.000000  0.413683      2.000000
  0.137894  0.000000  0.413683      4.000000
  0.275789  0.000000  0.413683      4.000000
  0.413683  0.000000  0.413683      4.000000
  0.000000  0.137894  0.413683      4.000000
  0.137894  0.137894  0.413683      8.000000
  0.275789  0.137894  0.413683      8.000000
  0.413683  0.137894  0.413683      8.000000
  0.000000  0.275789  0.413683      4.000000
  0.137894  0.275789  0.413683      8.000000
  0.275789  0.275789  0.413683      8.000000
  0.413683  0.275789  0.413683      8.000000
  0.000000  0.413683  0.413683      4.000000
  0.137894  0.413683  0.413683      8.000000
  0.275789  0.413683  0.413683      8.000000
  0.413683  0.413683  0.413683      8.000000
 


--------------------------------------------------------------------------------------------------------




 Dimension of arrays:
   k-points           NKPTS =     64   k-points in BZ     NKDIM =     64   number of bands    NBANDS=     84
   number of dos      NEDOS =    301   number of ions     NIONS =     16
   non local maximal  LDIM  =      6   non local SUM 2l+1 LMDIM =     18
   total plane-waves  NPLWV =  46656
   max r-space proj   IRMAX =   4030   max aug-charges    IRDMAX=  24967
   dimension x,y,z NGX =    36 NGY =   36 NGZ =   36
   dimension x,y,z NGXF=    72 NGYF=   72 NGZF=   72
   support grid    NGXF=    72 NGYF=   72 NGZF=   72
   ions per type =               8   6   2
   NGX,Y,Z   is equivalent  to a cutoff of  10.03, 10.03, 10.03 a.u.
   NGXF,Y,Z  is equivalent  to a cutoff of  20.06, 20.06, 20.06 a.u.

 SYSTEM =  Testrun for NiMnIn                      
 POSCAR =  Ni2MnIn                                 

 Startparameter for this run:
   NWRITE =      2    write-flag & timer
   PREC   = normal    normal or accurate (medium, high low for compatibility)
   ISTART =      0    job   : 0-new  1-cont  2-samecut
   ICHARG =      2    charge: 1-file 2-atom 10-const
   ISPIN  =      2    spin polarized calculation?
   LNONCOLLINEAR =      F non collinear calculations
   LSORBIT =      F    spin-orbit coupling
   INIWAV =      1    electr: 0-lowe 1-rand  2-diag
   LASPH  =      F    aspherical Exc in radial PAW
   METAGGA=      F    non-selfconsistent MetaGGA calc.

 Electronic Relaxation 1
   ENCUT  =  550.0 eV  40.42 Ry    6.36 a.u.  11.41 11.41 11.41*2*pi/ulx,y,z
   ENINI  =  550.0     initial cutoff
   ENAUG  =  544.6 eV  augmentation charge cutoff
   NELM   =     60;   NELMIN=  2; NELMDL= -5     # of ELM steps 
   EDIFF  = 0.1E-04   stopping-criterion for ELM
   LREAL  =      T    real-space projection
   NLSPLINE    = F    spline interpolate recip. space projectors
   LCOMPAT=      F    compatible to vasp.4.4
   GGA_COMPAT  = T    GGA compatible to vasp.4.4-vasp.4.6
   LMAXPAW     = -100 max onsite density
   LMAXMIX     =    2 max onsite mixed and CHGCAR
   VOSKOWN=      0    Vosko Wilk Nusair interpolation
   ROPT   =   -0.00050  -0.00050  -0.00050
 Ionic relaxation
   EDIFFG = -.1E-01   stopping-criterion for IOM
   NSW    =   1000    number of steps for IOM
   NBLOCK =      1;   KBLOCK =   1000    inner block; outer block 
   IBRION =      2    ionic relax: 0-MD 1-quasi-New 2-CG
   NFREE  =      1    steps in history (QN), initial steepest desc. (CG)
   ISIF   =      2    stress and relaxation
   IWAVPR =     11    prediction:  0-non 1-charg 2-wave 3-comb
   ISYM   =      2    0-nonsym 1-usesym 2-fastsym
   LCORR  =      T    Harris-Foulkes like correction to forces

   POTIM  = 0.5000    time-step for ionic-motion
   TEIN   =    0.0    initial temperature
   TEBEG  =    0.0;   TEEND  =   0.0 temperature during run
   SMASS  =  -3.00    Nose mass-parameter (am)
   estimated Nose-frequenzy (Omega)   =  0.10E-29 period in steps =****** mass=  -0.814E-27a.u.
   SCALEE = 1.0000    scale energy and forces
   NPACO  =    256;   APACO  = 16.0  distance and # of slots for P.C.
   PSTRESS=    0.0 pullay stress

  Mass of Ions in am
   POMASS =  58.69 54.94114.82
  Ionic Valenz
   ZVAL   =  10.00  7.00  3.00
  Atomic Wigner-Seitz radii
   RWIGS  =  -1.00 -1.00 -1.00
  virtual crystal weights 
   VCA    =   1.00  1.00  1.00
   NELECT =     128.0000    total number of electrons
   NUPDOWN=      -1.0000    fix difference up-down

 DOS related values:
   EMIN   =  10.00;   EMAX   =-10.00  energy-range for DOS
   EFERMI =   0.00
   ISMEAR =     0;   SIGMA  =   0.02  broadening in eV -4-tet -1-fermi 0-gaus

 Electronic relaxation 2 (details)
   IALGO  =     68    algorithm
   LDIAG  =      T    sub-space diagonalisation (order eigenvalues)
   LSUBROT=      F    optimize rotation matrix (better conditioning)
   TURBO    =      0    0=normal 1=particle mesh
   IRESTART =      0    0=no restart 2=restart with 2 vectors
   NREBOOT  =      0    no. of reboots
   NMIN     =      0    reboot dimension
   EREF     =   0.00    reference energy to select bands
   IMIX   =      4    mixing-type and parameters
     AMIX     =   0.40;   BMIX     =  1.00
     AMIX_MAG =   1.60;   BMIX_MAG =  1.00
     AMIN     =   0.10
     WC   =   100.;   INIMIX=   1;  MIXPRE=   1;  MAXMIX= -45

 Intra band minimization:
   WEIMIN = 0.0010     energy-eigenvalue tresh-hold
   EBREAK =  0.30E-07  absolut break condition
   DEPER  =   0.30     relativ break condition  

   TIME   =   0.40     timestep for ELM

  volume/ion in A,a.u.               =      13.28        89.62
  Fermi-wavevector in a.u.,A,eV,Ry     =   1.382612  2.612758 26.009114  1.911616
  Thomas-Fermi vector in A             =   2.507287

 Write flags
   LWAVE        =      F    write WAVECAR
   LDOWNSAMPLE  =      F    k-point downsampling of WAVECAR
   LCHARG       =      T    write CHGCAR
   LVTOT        =      F    write LOCPOT, total local potential
   LVHAR        =      F    write LOCPOT, Hartree potential only
   LELF         =      F    write electronic localiz. function (ELF)
   LORBIT       =     11    0 simple, 1 ext, 2 COOP (PROOUT), +10 PAW based schemes


 Dipole corrections
   LMONO  =      F    monopole corrections only (constant potential shift)
   LDIPOL =      F    correct potential (dipole corrections)
   IDIPOL =      0    1-x, 2-y, 3-z, 4-all directions 
   EPSILON=  1.0000000 bulk dielectric constant

 Exchange correlation treatment:
   GGA     =    --    GGA type
   LEXCH   =     8    internal setting for exchange type
   VOSKOWN=      0    Vosko Wilk Nusair interpolation
   LHFCALC =     F    Hartree Fock is set to
   LHFONE  =     F    Hartree Fock one center treatment
   AEXX    =    0.0000 exact exchange contribution

 Linear response parameters
   LEPSILON=     F    determine dielectric tensor
   LRPA    =     F    only Hartree local field effects (RPA)
   LNABLA  =     F    use nabla operator in PAW spheres
   LVEL    =     F    velocity operator in full k-point grid
   LINTERFAST=   F  fast interpolation
   KINTER  =     0    interpolate to denser k-point grid
   CSHIFT  =0.1000    complex shift for real part using Kramers Kronig
   OMEGAMAX=  -1.0    maximum frequency
   DEG_THRESHOLD= 0.2000000E-02 threshold for treating states as degnerate
   RTIME   =   -0.100 relaxation time in fs
  (WPLASMAI=    0.000 imaginary part of plasma frequency in eV, 0.658/RTIME)
   DFIELD  = 0.0000000 0.0000000 0.0000000 field for delta impulse in time

 Orbital magnetization related:
   ORBITALMAG=     F  switch on orbital magnetization
   LCHIMAG   =     F  perturbation theory with respect to B field
   DQ        =  0.001000  dq finite difference perturbation B field
   LLRAUG    =     F  two centre corrections for induced B field



--------------------------------------------------------------------------------------------------------


 conjugate gradient relaxation of ions
 charge density and potential will be updated during run
 spin polarized calculation
 RMM-DIIS sequential band-by-band and
  variant of blocked Davidson during initial phase
 perform sub-space diagonalisation
    before iterative eigenvector-optimisation
 modified Broyden-mixing scheme, WC =      100.0
 initial mixing is a Kerker type mixing with AMIX =  0.4000 and BMIX =      1.0000
 Hartree-type preconditioning will be used
 using additional bands           20
 real space projection scheme for non local part
 use partial core corrections
 calculate Harris-corrections to forces   (improved forces if not selfconsistent)
 use gradient corrections 
 use of overlap-Matrix (Vanderbilt PP)
 Gauss-broadening in eV      SIGMA  =   0.02


--------------------------------------------------------------------------------------------------------


  energy-cutoff  :      550.00
  volume of cell :      212.49
      direct lattice vectors                 reciprocal lattice vectors
     5.967299489  0.000000000  0.000000000     0.167579992  0.000000000  0.000000000
     0.000000000  5.967299489  0.000000000     0.000000000  0.167579992  0.000000000
     0.000000000  0.000000000  5.967299489     0.000000000  0.000000000  0.167579992

  length of vectors
     5.967299489  5.967299489  5.967299489     0.167579992  0.167579992  0.167579992



 k-points in units of 2pi/SCALE and weight: k-points                                
   0.00000000  0.00000000  0.00000000       0.003
   0.13789439  0.00000000  0.00000000       0.006
   0.27578879  0.00000000  0.00000000       0.006
   0.41368318  0.00000000  0.00000000       0.006
   0.00000000  0.13789439  0.00000000       0.006
   0.13789439  0.13789439  0.00000000       0.012
   0.27578879  0.13789439  0.00000000       0.012
   0.41368318  0.13789439  0.00000000       0.012
   0.00000000  0.27578879  0.00000000       0.006
   0.13789439  0.27578879  0.00000000       0.012
   0.27578879  0.27578879  0.00000000       0.012
   0.41368318  0.27578879  0.00000000       0.012
   0.00000000  0.41368318  0.00000000       0.006
   0.13789439  0.41368318  0.00000000       0.012
   0.27578879  0.41368318  0.00000000       0.012
   0.41368318  0.41368318  0.00000000       0.012
   0.00000000  0.00000000  0.13789439       0.006
   0.13789439  0.00000000  0.13789439       0.012
   0.27578879  0.00000000  0.13789439       0.012
   0.41368318  0.00000000  0.13789439       0.012
   0.00000000  0.13789439  0.13789439       0.012
   0.13789439  0.13789439  0.13789439       0.023
   0.27578879  0.13789439  0.13789439       0.023
   0.41368318  0.13789439  0.13789439       0.023
   0.00000000  0.27578879  0.13789439       0.012
   0.13789439  0.27578879  0.13789439       0.023
   0.27578879  0.27578879  0.13789439       0.023
   0.41368318  0.27578879  0.13789439       0.023
   0.00000000  0.41368318  0.13789439       0.012
   0.13789439  0.41368318  0.13789439       0.023
   0.27578879  0.41368318  0.13789439       0.023
   0.41368318  0.41368318  0.13789439       0.023
   0.00000000  0.00000000  0.27578879       0.006
   0.13789439  0.00000000  0.27578879       0.012
   0.27578879  0.00000000  0.27578879       0.012
   0.41368318  0.00000000  0.27578879       0.012
   0.00000000  0.13789439  0.27578879       0.012
   0.13789439  0.13789439  0.27578879       0.023
   0.27578879  0.13789439  0.27578879       0.023
   0.41368318  0.13789439  0.27578879       0.023
   0.00000000  0.27578879  0.27578879       0.012
   0.13789439  0.27578879  0.27578879       0.023
   0.27578879  0.27578879  0.27578879       0.023
   0.41368318  0.27578879  0.27578879       0.023
   0.00000000  0.41368318  0.27578879       0.012
   0.13789439  0.41368318  0.27578879       0.023
   0.27578879  0.41368318  0.27578879       0.023
   0.41368318  0.41368318  0.27578879       0.023
   0.00000000  0.00000000  0.41368318       0.006
   0.13789439  0.00000000  0.41368318       0.012
   0.27578879  0.00000000  0.41368318       0.012
   0.41368318  0.00000000  0.41368318       0.012
   0.00000000  0.13789439  0.41368318       0.012
   0.13789439  0.13789439  0.41368318       0.023
   0.27578879  0.13789439  0.41368318       0.023
   0.41368318  0.13789439  0.41368318       0.023
   0.00000000  0.27578879  0.41368318       0.012
   0.13789439  0.27578879  0.41368318       0.023
   0.27578879  0.27578879  0.41368318       0.023
   0.41368318  0.27578879  0.41368318       0.023
   0.00000000  0.41368318  0.41368318       0.012
   0.13789439  0.41368318  0.41368318       0.023
   0.27578879  0.41368318  0.41368318       0.023
   0.41368318  0.41368318  0.41368318       0.023

 k-points in reciprocal lattice and weights: k-points                                
   0.00000000  0.00000000  0.00000000       0.003
   0.14285714  0.00000000  0.00000000       0.006
   0.28571429  0.00000000  0.00000000       0.006
   0.42857143  0.00000000  0.00000000       0.006
   0.00000000  0.14285714  0.00000000       0.006
   0.14285714  0.14285714  0.00000000       0.012
   0.28571429  0.14285714  0.00000000       0.012
   0.42857143  0.14285714  0.00000000       0.012
   0.00000000  0.28571429  0.00000000       0.006
   0.14285714  0.28571429  0.00000000       0.012
   0.28571429  0.28571429  0.00000000       0.012
   0.42857143  0.28571429  0.00000000       0.012
   0.00000000  0.42857143  0.00000000       0.006
   0.14285714  0.42857143  0.00000000       0.012
   0.28571429  0.42857143  0.00000000       0.012
   0.42857143  0.42857143  0.00000000       0.012
   0.00000000  0.00000000  0.14285714       0.006
   0.14285714  0.00000000  0.14285714       0.012
   0.28571429  0.00000000  0.14285714       0.012
   0.42857143  0.00000000  0.14285714       0.012
   0.00000000  0.14285714  0.14285714       0.012
   0.14285714  0.14285714  0.14285714       0.023
   0.28571429  0.14285714  0.14285714       0.023
   0.42857143  0.14285714  0.14285714       0.023
   0.00000000  0.28571429  0.14285714       0.012
   0.14285714  0.28571429  0.14285714       0.023
   0.28571429  0.28571429  0.14285714       0.023
   0.42857143  0.28571429  0.14285714       0.023
   0.00000000  0.42857143  0.14285714       0.012
   0.14285714  0.42857143  0.14285714       0.023
   0.28571429  0.42857143  0.14285714       0.023
   0.42857143  0.42857143  0.14285714       0.023
   0.00000000  0.00000000  0.28571429       0.006
   0.14285714  0.00000000  0.28571429       0.012
   0.28571429  0.00000000  0.28571429       0.012
   0.42857143  0.00000000  0.28571429       0.012
   0.00000000  0.14285714  0.28571429       0.012
   0.14285714  0.14285714  0.28571429       0.023
   0.28571429  0.14285714  0.28571429       0.023
   0.42857143  0.14285714  0.28571429       0.023
   0.00000000  0.28571429  0.28571429       0.012
   0.14285714  0.28571429  0.28571429       0.023
   0.28571429  0.28571429  0.28571429       0.023
   0.42857143  0.28571429  0.28571429       0.023
   0.00000000  0.42857143  0.28571429       0.012
   0.14285714  0.42857143  0.28571429       0.023
   0.28571429  0.42857143  0.28571429       0.023
   0.42857143  0.42857143  0.28571429       0.023
   0.00000000  0.00000000  0.42857143       0.006
   0.14285714  0.00000000  0.42857143       0.012
   0.28571429  0.00000000  0.42857143       0.012
   0.42857143  0.00000000  0.42857143       0.012
   0.00000000  0.14285714  0.42857143       0.012
   0.14285714  0.14285714  0.42857143       0.023
   0.28571429  0.14285714  0.42857143       0.023
   0.42857143  0.14285714  0.42857143       0.023
   0.00000000  0.28571429  0.42857143       0.012
   0.14285714  0.28571429  0.42857143       0.023
   0.28571429  0.28571429  0.42857143       0.023
   0.42857143  0.28571429  0.42857143       0.023
   0.00000000  0.42857143  0.42857143       0.012
   0.14285714  0.42857143  0.42857143       0.023
   0.28571429  0.42857143  0.42857143       0.023
   0.42857143  0.42857143  0.42857143       0.023

 position of ions in fractional coordinates (direct lattice) 
   0.25067864  0.26801702  0.26524603
   0.74932136  0.26801702  0.26524603
   0.25067864  0.73198298  0.26524603
   0.74932136  0.73198298  0.26524603
   0.25067864  0.26801702  0.73475397
   0.74932136  0.26801702  0.73475397
   0.25067864  0.73198298  0.73475397
   0.74932136  0.73198298  0.73475397
   0.50000000  0.50000000  0.00000000
   0.00000000  0.50000000  0.00000000
   0.00000000  0.00000000  0.50000000
   0.50000000  0.00000000  0.50000000
   0.50000000  0.50000000  0.50000000
   0.00000000  0.50000000  0.50000000
   0.00000000  0.00000000  0.00000000
   0.50000000  0.00000000  0.00000000

 position of ions in cartesian coordinates  (Angst):
   1.49587455  1.59933782  1.58280249
   4.47142494  1.59933782  1.58280249
   1.49587455  4.36796167  1.58280249
   4.47142494  4.36796167  1.58280249
   1.49587455  1.59933782  4.38449700
   4.47142494  1.59933782  4.38449700
   1.49587455  4.36796167  4.38449700
   4.47142494  4.36796167  4.38449700
   2.98364974  2.98364974  0.00000000
   0.00000000  2.98364974  0.00000000
   0.00000000  0.00000000  2.98364974
   2.98364974  0.00000000  2.98364974
   2.98364974  2.98364974  2.98364974
   0.00000000  2.98364974  2.98364974
   0.00000000  0.00000000  0.00000000
   2.98364974  0.00000000  0.00000000



--------------------------------------------------------------------------------------------------------


 k-point  1 :   0.0000 0.0000 0.0000  plane waves:    6235
 k-point  2 :   0.1429 0.0000 0.0000  plane waves:    6227
 k-point  3 :   0.2857 0.0000 0.0000  plane waves:    6227
 k-point  4 :   0.4286 0.0000 0.0000  plane waves:    6238
 k-point  5 :   0.0000 0.1429 0.0000  plane waves:    6227
 k-point  6 :   0.1429 0.1429 0.0000  plane waves:    6236
 k-point  7 :   0.2857 0.1429 0.0000  plane waves:    6226
 k-point  8 :   0.4286 0.1429 0.0000  plane waves:    6230
 k-point  9 :   0.0000 0.2857 0.0000  plane waves:    6227
 k-point 10 :   0.1429 0.2857 0.0000  plane waves:    6226
 k-point 11 :   0.2857 0.2857 0.0000  plane waves:    6234
 k-point 12 :   0.4286 0.2857 0.0000  plane waves:    6217
 k-point 13 :   0.0000 0.4286 0.0000  plane waves:    6238
 k-point 14 :   0.1429 0.4286 0.0000  plane waves:    6230
 k-point 15 :   0.2857 0.4286 0.0000  plane waves:    6217
 k-point 16 :   0.4286 0.4286 0.0000  plane waves:    6220
 k-point 17 :   0.0000 0.0000 0.1429  plane waves:    6227
 k-point 18 :   0.1429 0.0000 0.1429  plane waves:    6236
 k-point 19 :   0.2857 0.0000 0.1429  plane waves:    6226
 k-point 20 :   0.4286 0.0000 0.1429  plane waves:    6230
 k-point 21 :   0.0000 0.1429 0.1429  plane waves:    6236
 k-point 22 :   0.1429 0.1429 0.1429  plane waves:    6241
 k-point 23 :   0.2857 0.1429 0.1429  plane waves:    6228
 k-point 24 :   0.4286 0.1429 0.1429  plane waves:    6231
 k-point 25 :   0.0000 0.2857 0.1429  plane waves:    6226
 k-point 26 :   0.1429 0.2857 0.1429  plane waves:    6228
 k-point 27 :   0.2857 0.2857 0.1429  plane waves:    6222
 k-point 28 :   0.4286 0.2857 0.1429  plane waves:    6227
 k-point 29 :   0.0000 0.4286 0.1429  plane waves:    6230
 k-point 30 :   0.1429 0.4286 0.1429  plane waves:    6231
 k-point 31 :   0.2857 0.4286 0.1429  plane waves:    6227
 k-point 32 :   0.4286 0.4286 0.1429  plane waves:    6217
 k-point 33 :   0.0000 0.0000 0.2857  plane waves:    6227
 k-point 34 :   0.1429 0.0000 0.2857  plane waves:    6226
 k-point 35 :   0.2857 0.0000 0.2857  plane waves:    6234
 k-point 36 :   0.4286 0.0000 0.2857  plane waves:    6217
 k-point 37 :   0.0000 0.1429 0.2857  plane waves:    6226
 k-point 38 :   0.1429 0.1429 0.2857  plane waves:    6228
 k-point 39 :   0.2857 0.1429 0.2857  plane waves:    6222
 k-point 40 :   0.4286 0.1429 0.2857  plane waves:    6227
 k-point 41 :   0.0000 0.2857 0.2857  plane waves:    6234
 k-point 42 :   0.1429 0.2857 0.2857  plane waves:    6222
 k-point 43 :   0.2857 0.2857 0.2857  plane waves:    6217
 k-point 44 :   0.4286 0.2857 0.2857  plane waves:    6226
 k-point 45 :   0.0000 0.4286 0.2857  plane waves:    6217
 k-point 46 :   0.1429 0.4286 0.2857  plane waves:    6227
 k-point 47 :   0.2857 0.4286 0.2857  plane waves:    6226
 k-point 48 :   0.4286 0.4286 0.2857  plane waves:    6208
 k-point 49 :   0.0000 0.0000 0.4286  plane waves:    6238
 k-point 50 :   0.1429 0.0000 0.4286  plane waves:    6230
 k-point 51 :   0.2857 0.0000 0.4286  plane waves:    6217
 k-point 52 :   0.4286 0.0000 0.4286  plane waves:    6220
 k-point 53 :   0.0000 0.1429 0.4286  plane waves:    6230
 k-point 54 :   0.1429 0.1429 0.4286  plane waves:    6231
 k-point 55 :   0.2857 0.1429 0.4286  plane waves:    6227
 k-point 56 :   0.4286 0.1429 0.4286  plane waves:    6217
 k-point 57 :   0.0000 0.2857 0.4286  plane waves:    6217
 k-point 58 :   0.1429 0.2857 0.4286  plane waves:    6227
 k-point 59 :   0.2857 0.2857 0.4286  plane waves:    6226
 k-point 60 :   0.4286 0.2857 0.4286  plane waves:    6208
 k-point 61 :   0.0000 0.4286 0.4286  plane waves:    6220
 k-point 62 :   0.1429 0.4286 0.4286  plane waves:    6217
 k-point 63 :   0.2857 0.4286 0.4286  plane waves:    6208
 k-point 64 :   0.4286 0.4286 0.4286  plane waves:    6179

 maximum and minimum number of plane-waves per node :      6241     6179

 maximum number of plane-waves:      6241
 maximum index in each direction: 
   IXMAX=   11   IYMAX=   11   IZMAX=   11
   IXMIN=  -11   IYMIN=  -11   IZMIN=  -11


 serial   3D FFT for wavefunctions
 parallel 3D FFT for charge:
    minimum data exchange during FFTs selected (reduces bandwidth)


 total amount of memory used by VASP MPI-rank0   138905. kBytes
=======================================================================

   base      :      30000. kBytes
   nonlr-proj:       6809. kBytes
   fftplans  :       1269. kBytes
   grid      :       6573. kBytes
   one-center:        497. kBytes
   wavefun   :      93757. kBytes

     INWAV:  cpu time    0.0000: real time    0.0000
 Broyden mixing: mesh for mixing (old mesh)
   NGX = 23   NGY = 23   NGZ = 23
  (NGX  = 72   NGY  = 72   NGZ  = 72)
  gives a total of  12167 points

 initial charge density was supplied:
 charge density of overlapping atoms calculated
 number of electron     128.0000000 magnetization       8.8000000
 keeping initial charge density in first step


--------------------------------------------------------------------------------------------------------


 Maximum index for non-local projection operator         3887
 Maximum index for augmentation-charges         2111 (set IRDMAX)


--------------------------------------------------------------------------------------------------------


 First call to EWALD:  gamma=   0.297
 Maximum number of real-space cells 3x 3x 3
 Maximum number of reciprocal cells 3x 3x 3

    FEWALD:  cpu time    0.0021: real time    0.0021


--------------------------------------- Iteration      1(   1)  ---------------------------------------


    POTLOK:  cpu time    0.1044: real time    0.1126
    SETDIJ:  cpu time    0.0374: real time    0.0374
     EDDAV:  cpu time   38.1144: real time   39.0830
       DOS:  cpu time    0.0056: real time    0.0056
    --------------------------------------------
      LOOP:  cpu time   38.2618: real time   39.2386

 eigenvalue-minimisations  : 21504
 total energy-change (2. order) : 0.1066242E+04  (-0.5422228E+04)
 number of electron     128.0000000 magnetization       8.8000000
 augmentation part      128.0000000 magnetization       8.8000000

 Free energy of the ion-electron system (eV)
  ---------------------------------------------------
  alpha Z        PSCENC =       529.55838902
  Ewald energy   TEWEN  =     -9177.93412151
  -Hartree energ DENC   =     -3242.12431982
  -exchange      EXHF   =         0.00000000
  -V(xc)+E(xc)   XCENC  =        78.30793936
  PAW double counting   =     10320.96726947   -10647.99417394
  entropy T*S    EENTRO =        -0.00170717
  eigenvalues    EBANDS =      1976.00044367
  atomic energy  EATOM  =     11229.46195210
  Solvation  Ediel_sol  =         0.00000000
  ---------------------------------------------------
  free energy    TOTEN  =      1066.24167118 eV

  energy without entropy =     1066.24337836  energy(sigma->0) =     1066.24252477


--------------------------------------------------------------------------------------------------------




--------------------------------------- Iteration      1(   2)  ---------------------------------------


     EDDAV:  cpu time   38.1061: real time   38.1472
       DOS:  cpu time    0.0056: real time    0.0057
    --------------------------------------------
      LOOP:  cpu time   38.1117: real time   38.1528

 eigenvalue-minimisations  : 21504
 total energy-change (2. order) :-0.1064735E+04  (-0.1031308E+04)
 number of electron     128.0000000 magnetization       8.8000000
 augmentation part      128.0000000 magnetization       8.8000000

 Free energy of the ion-electron system (eV)
  ---------------------------------------------------
  alpha Z        PSCENC =       529.55838902
  Ewald energy   TEWEN  =     -9177.93412151
  -Hartree energ DENC   =     -3242.12431982
  -exchange      EXHF   =         0.00000000
  -V(xc)+E(xc)   XCENC  =        78.30793936
  PAW double counting   =     10320.96726947   -10647.99417394
  entropy T*S    EENTRO =        -0.00254128
  eigenvalues    EBANDS =       911.26653994
  atomic energy  EATOM  =     11229.46195210
  Solvation  Ediel_sol  =         0.00000000
  ---------------------------------------------------
  free energy    TOTEN  =         1.50693335 eV

  energy without entropy =        1.50947463  energy(sigma->0) =        1.50820399


--------------------------------------------------------------------------------------------------------




--------------------------------------- Iteration      1(   3)  ---------------------------------------


     EDDAV:  cpu time   41.5916: real time   41.6423
       DOS:  cpu time    0.0057: real time    0.0057
    --------------------------------------------
      LOOP:  cpu time   41.5972: real time   41.6480

 eigenvalue-minimisations  : 24048
 total energy-change (2. order) :-0.1110640E+03  (-0.9965317E+02)
 number of electron     128.0000000 magnetization       8.8000000
 augmentation part      128.0000000 magnetization       8.8000000

 Free energy of the ion-electron system (eV)
  ---------------------------------------------------
  alpha Z        PSCENC =       529.55838902
  Ewald energy   TEWEN  =     -9177.93412151
  -Hartree energ DENC   =     -3242.12431982
  -exchange      EXHF   =         0.00000000
  -V(xc)+E(xc)   XCENC  =        78.30793936
  PAW double counting   =     10320.96726947   -10647.99417394
  entropy T*S    EENTRO =        -0.00339423
  eigenvalues    EBANDS =       800.20338923
  atomic energy  EATOM  =     11229.46195210
  Solvation  Ediel_sol  =         0.00000000
  ---------------------------------------------------
  free energy    TOTEN  =      -109.55707031 eV

  energy without entropy =     -109.55367608  energy(sigma->0) =     -109.55537320


--------------------------------------------------------------------------------------------------------




--------------------------------------- Iteration      1(   4)  ---------------------------------------


     EDDAV:  cpu time   54.0806: real time   54.1615
       DOS:  cpu time    0.0053: real time    0.0055
    --------------------------------------------
      LOOP:  cpu time   54.0860: real time   54.1670

 eigenvalue-minimisations  : 33048
 total energy-change (2. order) :-0.7010270E+01  (-0.6601485E+01)
 number of electron     128.0000000 magnetization       8.8000000
 augmentation part      128.0000000 magnetization       8.8000000

 Free energy of the ion-electron system (eV)
  ---------------------------------------------------
  alpha Z        PSCENC =       529.55838902
  Ewald energy   TEWEN  =     -9177.93412151
  -Hartree energ DENC   =     -3242.12431982
  -exchange      EXHF   =         0.00000000
  -V(xc)+E(xc)   XCENC  =        78.30793936
  PAW double counting   =     10320.96726947   -10647.99417394
  entropy T*S    EENTRO =        -0.00423491
  eigenvalues    EBANDS =       793.19395970
  atomic energy  EATOM  =     11229.46195210
  Solvation  Ediel_sol  =         0.00000000
  ---------------------------------------------------
  free energy    TOTEN  =      -116.56734052 eV

  energy without entropy =     -116.56310561  energy(sigma->0) =     -116.56522306


--------------------------------------------------------------------------------------------------------




--------------------------------------- Iteration      1(   5)  ---------------------------------------


     EDDAV:  cpu time   51.5086: real time   51.6390
       DOS:  cpu time    0.0056: real time    0.0056
    CHARGE:  cpu time    1.0363: real time    1.0378
    MIXING:  cpu time    0.0016: real time    0.0016
    --------------------------------------------
      LOOP:  cpu time   52.5520: real time   52.6839

 eigenvalue-minimisations  : 31320
 total energy-change (2. order) :-0.2307422E+00  (-0.2296919E+00)
 number of electron     127.9999892 magnetization       7.8100392
 augmentation part       60.5684856 magnetization       4.9606725

 Broyden mixing:
  rms(total) = 0.34661E+01    rms(broyden)= 0.34661E+01
  rms(prec ) = 0.53339E+01
  weight for this iteration     100.00

 Free energy of the ion-electron system (eV)
  ---------------------------------------------------
  alpha Z        PSCENC =       529.55838902
  Ewald energy   TEWEN  =     -9177.93412151
  -Hartree energ DENC   =     -3242.12431982
  -exchange      EXHF   =         0.00000000
  -V(xc)+E(xc)   XCENC  =        78.30793936
  PAW double counting   =     10320.96726947   -10647.99417394
  entropy T*S    EENTRO =        -0.00419972
  eigenvalues    EBANDS =       792.96318234
  atomic energy  EATOM  =     11229.46195210
  Solvation  Ediel_sol  =         0.00000000
  ---------------------------------------------------
  free energy    TOTEN  =      -116.79808269 eV

  energy without entropy =     -116.79388297  energy(sigma->0) =     -116.79598283


--------------------------------------------------------------------------------------------------------




--------------------------------------- Iteration      1(   6)  ---------------------------------------


    POTLOK:  cpu time    0.1040: real time    0.1048
    SETDIJ:  cpu time    0.0378: real time    0.0378
    EDDIAG:  cpu time    5.3309: real time    5.3399
  RMM-DIIS:  cpu time   16.7109: real time   16.7503
    ORTHCH:  cpu time    1.0220: real time    1.0237
       DOS:  cpu time    0.0056: real time    0.0056
    CHARGE:  cpu time    1.0686: real time    1.0701
    MIXING:  cpu time    0.0017: real time    0.0017
    --------------------------------------------
      LOOP:  cpu time   24.2814: real time   24.3338

 eigenvalue-minimisations  : 21504
 total energy-change (2. order) : 0.6943082E+01  (-0.1626720E+02)
 number of electron     127.9999979 magnetization       7.2819986
 augmentation part       69.7559322 magnetization       5.8800216

 Broyden mixing:
  rms(total) = 0.45744E+01    rms(broyden)= 0.45743E+01
  rms(prec ) = 0.61831E+01
  weight for this iteration     100.00

 eigenvalues of (default mixing * dielectric matrix)
  average eigenvalue GAMMA=   0.2281
  0.2281

 Free energy of the ion-electron system (eV)
  ---------------------------------------------------
  alpha Z        PSCENC =       529.55838902
  Ewald energy   TEWEN  =     -9177.93412151
  -Hartree energ DENC   =     -3005.80649895
  -exchange      EXHF   =         0.00000000
  -V(xc)+E(xc)   XCENC  =        65.92007228
  PAW double counting   =     11108.04850549   -11400.92514577
  entropy T*S    EENTRO =        -0.00355194
  eigenvalues    EBANDS =       541.82539861
  atomic energy  EATOM  =     11229.46195210
  Solvation  Ediel_sol  =         0.00000000
  ---------------------------------------------------
  free energy    TOTEN  =      -109.85500066 eV

  energy without entropy =     -109.85144872  energy(sigma->0) =     -109.85322469


--------------------------------------------------------------------------------------------------------




--------------------------------------- Iteration      1(   7)  ---------------------------------------


    POTLOK:  cpu time    0.0975: real time    0.0977
    SETDIJ:  cpu time    0.0355: real time    0.0355
    EDDIAG:  cpu time    5.3050: real time    5.3152
  RMM-DIIS:  cpu time   16.7395: real time   16.7707
    ORTHCH:  cpu time    1.0200: real time    1.0216
       DOS:  cpu time    0.0057: real time    0.0057
    CHARGE:  cpu time    1.0685: real time    1.0699
    MIXING:  cpu time    0.0017: real time    0.0017
    --------------------------------------------
      LOOP:  cpu time   24.2734: real time   24.3179

 eigenvalue-minimisations  : 21570
 total energy-change (2. order) :-0.1526974E+01  (-0.2463243E+01)
 number of electron     127.9999870 magnetization       6.7830299
 augmentation part       70.0821872 magnetization       4.7483369

 Broyden mixing:
  rms(total) = 0.38430E+01    rms(broyden)= 0.38429E+01
  rms(prec ) = 0.70864E+01
  weight for this iteration     100.00

 eigenvalues of (default mixing * dielectric matrix)
  average eigenvalue GAMMA=   0.3889
  0.3889  0.3889

 Free energy of the ion-electron system (eV)
  ---------------------------------------------------
  alpha Z        PSCENC =       529.55838902
  Ewald energy   TEWEN  =     -9177.93412151
  -Hartree energ DENC   =     -2998.89641656
  -exchange      EXHF   =         0.00000000
  -V(xc)+E(xc)   XCENC  =        66.93032633
  PAW double counting   =     11393.09497892   -11692.57215603
  entropy T*S    EENTRO =        -0.00265244
  eigenvalues    EBANDS =       538.97772557
  atomic energy  EATOM  =     11229.46195210
  Solvation  Ediel_sol  =         0.00000000
  ---------------------------------------------------
  free energy    TOTEN  =      -111.38197460 eV

  energy without entropy =     -111.37932216  energy(sigma->0) =     -111.38064838


--------------------------------------------------------------------------------------------------------




--------------------------------------- Iteration      1(   8)  ---------------------------------------


    POTLOK:  cpu time    0.0974: real time    0.0976
    SETDIJ:  cpu time    0.0354: real time    0.0354
    EDDIAG:  cpu time    5.3245: real time    5.3338
  RMM-DIIS:  cpu time   16.8984: real time   16.9333
    ORTHCH:  cpu time    1.0207: real time    1.0223
       DOS:  cpu time    0.0059: real time    0.0059
    CHARGE:  cpu time    1.0777: real time    1.0792
    MIXING:  cpu time    0.0018: real time    0.0018
    --------------------------------------------
      LOOP:  cpu time   24.4617: real time   24.5093

 eigenvalue-minimisations  : 21504
 total energy-change (2. order) : 0.3914229E+01  (-0.2561920E+01)
 number of electron     127.9999947 magnetization       6.1535485
 augmentation part       68.7020163 magnetization       4.9709646

 Broyden mixing:
  rms(total) = 0.30738E+01    rms(broyden)= 0.30737E+01
  rms(prec ) = 0.59160E+01
  weight for this iteration     100.00

 eigenvalues of (default mixing * dielectric matrix)
  average eigenvalue GAMMA=   0.3914
  0.5090  0.5090  0.1562

 Free energy of the ion-electron system (eV)
  ---------------------------------------------------
  alpha Z        PSCENC =       529.55838902
  Ewald energy   TEWEN  =     -9177.93412151
  -Hartree energ DENC   =     -3045.75710032
  -exchange      EXHF   =         0.00000000
  -V(xc)+E(xc)   XCENC  =        70.12929340
  PAW double counting   =     11700.61049554   -12020.46728182
  entropy T*S    EENTRO =        -0.00379275
  eigenvalues    EBANDS =       606.93442117
  atomic energy  EATOM  =     11229.46195210
  Solvation  Ediel_sol  =         0.00000000
  ---------------------------------------------------
  free energy    TOTEN  =      -107.46774517 eV

  energy without entropy =     -107.46395242  energy(sigma->0) =     -107.46584880


--------------------------------------------------------------------------------------------------------




--------------------------------------- Iteration      1(   9)  ---------------------------------------


    POTLOK:  cpu time    0.1052: real time    0.1108
    SETDIJ:  cpu time    0.0376: real time    0.0376
    EDDIAG:  cpu time    5.3802: real time    5.3933
  RMM-DIIS:  cpu time   16.8354: real time   16.8752
    ORTHCH:  cpu time    1.0232: real time    1.0263
       DOS:  cpu time    0.0057: real time    0.0058
    CHARGE:  cpu time    1.0689: real time    1.0726
    MIXING:  cpu time    0.0018: real time    0.0018
    --------------------------------------------
      LOOP:  cpu time   24.4581: real time   24.5234

 eigenvalue-minimisations  : 21519
 total energy-change (2. order) : 0.3854603E+01  (-0.7952978E+00)
 number of electron     127.9999950 magnetization       6.4046517
 augmentation part       66.6998570 magnetization       4.3114208

 Broyden mixing:
  rms(total) = 0.18112E+01    rms(broyden)= 0.18111E+01
  rms(prec ) = 0.28163E+01
  weight for this iteration     100.00

 eigenvalues of (default mixing * dielectric matrix)
  average eigenvalue GAMMA=   0.4679
  0.9541  0.5179  0.2698  0.1300

 Free energy of the ion-electron system (eV)
  ---------------------------------------------------
  alpha Z        PSCENC =       529.55838902
  Ewald energy   TEWEN  =     -9177.93412151
  -Hartree energ DENC   =     -3066.35619777
  -exchange      EXHF   =         0.00000000
  -V(xc)+E(xc)   XCENC  =        71.39912578
  PAW double counting   =     11910.81282979   -12241.23737633
  entropy T*S    EENTRO =        -0.00385992
  eigenvalues    EBANDS =       640.68611685
  atomic energy  EATOM  =     11229.46195210
  Solvation  Ediel_sol  =         0.00000000
  ---------------------------------------------------
  free energy    TOTEN  =      -103.61314198 eV

  energy without entropy =     -103.60928206  energy(sigma->0) =     -103.61121202


--------------------------------------------------------------------------------------------------------




--------------------------------------- Iteration      1(  10)  ---------------------------------------


    POTLOK:  cpu time    0.0971: real time    0.0975
    SETDIJ:  cpu time    0.0355: real time    0.0355
    EDDIAG:  cpu time    5.3383: real time    5.3518
  RMM-DIIS:  cpu time   16.7763: real time   16.8212
    ORTHCH:  cpu time    1.0208: real time    1.0228
       DOS:  cpu time    0.0058: real time    0.0058
    CHARGE:  cpu time    1.0676: real time    1.0695
    MIXING:  cpu time    0.0020: real time    0.0020
    --------------------------------------------
      LOOP:  cpu time   24.3433: real time   24.4062

 eigenvalue-minimisations  : 21509
 total energy-change (2. order) : 0.9650289E+00  (-0.2241365E+00)
 number of electron     127.9999920 magnetization       6.9270635
 augmentation part       67.6800996 magnetization       4.7145447

 Broyden mixing:
  rms(total) = 0.10079E+01    rms(broyden)= 0.10079E+01
  rms(prec ) = 0.12451E+01
  weight for this iteration     100.00

 eigenvalues of (default mixing * dielectric matrix)
  average eigenvalue GAMMA=   0.4568
  0.9837  0.4744  0.4744  0.2157  0.1358

 Free energy of the ion-electron system (eV)
  ---------------------------------------------------
  alpha Z        PSCENC =       529.55838902
  Ewald energy   TEWEN  =     -9177.93412151
  -Hartree energ DENC   =     -3048.47120206
  -exchange      EXHF   =         0.00000000
  -V(xc)+E(xc)   XCENC  =        71.20001376
  PAW double counting   =     12194.52106398   -12527.53761209
  entropy T*S    EENTRO =        -0.00265959
  eigenvalues    EBANDS =       626.55606327
  atomic energy  EATOM  =     11229.46195210
  Solvation  Ediel_sol  =         0.00000000
  ---------------------------------------------------
  free energy    TOTEN  =      -102.64811312 eV

  energy without entropy =     -102.64545354  energy(sigma->0) =     -102.64678333


--------------------------------------------------------------------------------------------------------




--------------------------------------- Iteration      1(  11)  ---------------------------------------


    POTLOK:  cpu time    0.0977: real time    0.0979
    SETDIJ:  cpu time    0.0355: real time    0.0355
    EDDIAG:  cpu time    5.3746: real time    5.3859
  RMM-DIIS:  cpu time   16.9663: real time   17.0001
    ORTHCH:  cpu time    1.0230: real time    1.0246
       DOS:  cpu time    0.0053: real time    0.0053
    CHARGE:  cpu time    1.0582: real time    1.0603
    MIXING:  cpu time    0.0020: real time    0.0020
    --------------------------------------------
      LOOP:  cpu time   24.5625: real time   24.6117

 eigenvalue-minimisations  : 21581
 total energy-change (2. order) :-0.1512572E+00  (-0.4212198E-01)
 number of electron     127.9999930 magnetization       7.6003380
 augmentation part       67.4586096 magnetization       5.3074536

 Broyden mixing:
  rms(total) = 0.69814E+00    rms(broyden)= 0.69813E+00
  rms(prec ) = 0.77053E+00
  weight for this iteration     100.00

 eigenvalues of (default mixing * dielectric matrix)
  average eigenvalue GAMMA=   0.5355
  0.9183  0.7170  0.7170  0.5251  0.2023  0.1333

 Free energy of the ion-electron system (eV)
  ---------------------------------------------------
  alpha Z        PSCENC =       529.55838902
  Ewald energy   TEWEN  =     -9177.93412151
  -Hartree energ DENC   =     -3049.68752993
  -exchange      EXHF   =         0.00000000
  -V(xc)+E(xc)   XCENC  =        72.41583476
  PAW double counting   =     12327.81617447   -12664.47740401
  entropy T*S    EENTRO =        -0.00260567
  eigenvalues    EBANDS =       630.04994044
  atomic energy  EATOM  =     11229.46195210
  Solvation  Ediel_sol  =         0.00000000
  ---------------------------------------------------
  free energy    TOTEN  =      -102.79937033 eV

  energy without entropy =     -102.79676466  energy(sigma->0) =     -102.79806750


--------------------------------------------------------------------------------------------------------




--------------------------------------- Iteration      1(  12)  ---------------------------------------


    POTLOK:  cpu time    0.1043: real time    0.1050
    SETDIJ:  cpu time    0.0374: real time    0.0374
    EDDIAG:  cpu time    5.4272: real time    5.4392
  RMM-DIIS:  cpu time   17.0599: real time   17.0928
    ORTHCH:  cpu time    1.0230: real time    1.0246
       DOS:  cpu time    0.0059: real time    0.0059
    CHARGE:  cpu time    1.0634: real time    1.0649
    MIXING:  cpu time    0.0022: real time    0.0022
    --------------------------------------------
      LOOP:  cpu time   24.7232: real time   24.7720

 eigenvalue-minimisations  : 21710
 total energy-change (2. order) :-0.2914048E+00  (-0.3710058E-01)
 number of electron     127.9999932 magnetization       8.6734649
 augmentation part       67.4288867 magnetization       6.4247322

 Broyden mixing:
  rms(total) = 0.64675E+00    rms(broyden)= 0.64674E+00
  rms(prec ) = 0.86152E+00
  weight for this iteration     100.00

 eigenvalues of (default mixing * dielectric matrix)
  average eigenvalue GAMMA=   0.6455
  1.7430  0.7755  0.7755  0.6167  0.1334  0.2060  0.2682

 Free energy of the ion-electron system (eV)
  ---------------------------------------------------
  alpha Z        PSCENC =       529.55838902
  Ewald energy   TEWEN  =     -9177.93412151
  -Hartree energ DENC   =     -3048.26876412
  -exchange      EXHF   =         0.00000000
  -V(xc)+E(xc)   XCENC  =        73.56324368
  PAW double counting   =     12473.84269949   -12813.37588939
  entropy T*S    EENTRO =        -0.00240334
  eigenvalues    EBANDS =       630.06411895
  atomic energy  EATOM  =     11229.46195210
  Solvation  Ediel_sol  =         0.00000000
  ---------------------------------------------------
  free energy    TOTEN  =      -103.09077512 eV

  energy without entropy =     -103.08837178  energy(sigma->0) =     -103.08957345


--------------------------------------------------------------------------------------------------------




--------------------------------------- Iteration      1(  13)  ---------------------------------------


    POTLOK:  cpu time    0.0999: real time    0.1001
    SETDIJ:  cpu time    0.0359: real time    0.0360
    EDDIAG:  cpu time    5.4236: real time    5.4344
  RMM-DIIS:  cpu time   17.5497: real time   17.5880
    ORTHCH:  cpu time    1.0201: real time    1.0217
       DOS:  cpu time    0.0056: real time    0.0057
    CHARGE:  cpu time    1.0718: real time    1.0749
    MIXING:  cpu time    0.0023: real time    0.0023
    --------------------------------------------
      LOOP:  cpu time   25.2090: real time   25.2630

 eigenvalue-minimisations  : 22163
 total energy-change (2. order) :-0.9356671E-01  (-0.2940941E-01)
 number of electron     127.9999930 magnetization       8.9017348
 augmentation part       67.6674402 magnetization       6.4722486

 Broyden mixing:
  rms(total) = 0.26983E+00    rms(broyden)= 0.26982E+00
  rms(prec ) = 0.37349E+00
  weight for this iteration     100.00

 eigenvalues of (default mixing * dielectric matrix)
  average eigenvalue GAMMA=   0.6660
  2.0161  0.8350  0.8350  0.5192  0.5192  0.1335  0.2042  0.2660

 Free energy of the ion-electron system (eV)
  ---------------------------------------------------
  alpha Z        PSCENC =       529.55838902
  Ewald energy   TEWEN  =     -9177.93412151
  -Hartree energ DENC   =     -3041.44217724
  -exchange      EXHF   =         0.00000000
  -V(xc)+E(xc)   XCENC  =        74.96905922
  PAW double counting   =     12716.45955484   -13059.66193534
  entropy T*S    EENTRO =        -0.00149333
  eigenvalues    EBANDS =       625.40643041
  atomic energy  EATOM  =     11229.46195210
  Solvation  Ediel_sol  =         0.00000000
  ---------------------------------------------------
  free energy    TOTEN  =      -103.18434183 eV

  energy without entropy =     -103.18284850  energy(sigma->0) =     -103.18359516


--------------------------------------------------------------------------------------------------------




--------------------------------------- Iteration      1(  14)  ---------------------------------------


    POTLOK:  cpu time    0.0976: real time    0.0977
    SETDIJ:  cpu time    0.0354: real time    0.0354
    EDDIAG:  cpu time    5.4224: real time    5.4343
  RMM-DIIS:  cpu time   17.6549: real time   17.6970
    ORTHCH:  cpu time    1.0206: real time    1.0234
       DOS:  cpu time    0.0058: real time    0.0058
    CHARGE:  cpu time    1.0727: real time    1.0744
    MIXING:  cpu time    0.0025: real time    0.0025
    --------------------------------------------
      LOOP:  cpu time   25.3117: real time   25.3704

 eigenvalue-minimisations  : 22250
 total energy-change (2. order) :-0.1773847E-02  (-0.1162209E-01)
 number of electron     127.9999930 magnetization       9.0704884
 augmentation part       67.6887883 magnetization       6.6266530

 Broyden mixing:
  rms(total) = 0.17568E+00    rms(broyden)= 0.17568E+00
  rms(prec ) = 0.25419E+00
  weight for this iteration     100.00

 eigenvalues of (default mixing * dielectric matrix)
  average eigenvalue GAMMA=   0.6838
  2.1285  0.9830  0.9830  0.5726  0.5726  0.1335  0.2048  0.3107  0.2651

 Free energy of the ion-electron system (eV)
  ---------------------------------------------------
  alpha Z        PSCENC =       529.55838902
  Ewald energy   TEWEN  =     -9177.93412151
  -Hartree energ DENC   =     -3040.60016007
  -exchange      EXHF   =         0.00000000
  -V(xc)+E(xc)   XCENC  =        75.16592952
  PAW double counting   =     12774.92837592   -13118.92869954
  entropy T*S    EENTRO =        -0.00153494
  eigenvalues    EBANDS =       625.16375382
  atomic energy  EATOM  =     11229.46195210
  Solvation  Ediel_sol  =         0.00000000
  ---------------------------------------------------
  free energy    TOTEN  =      -103.18611568 eV

  energy without entropy =     -103.18458074  energy(sigma->0) =     -103.18534821


--------------------------------------------------------------------------------------------------------




--------------------------------------- Iteration      1(  15)  ---------------------------------------


    POTLOK:  cpu time    0.0976: real time    0.0987
    SETDIJ:  cpu time    0.0353: real time    0.0353
    EDDIAG:  cpu time    5.4474: real time    5.4625
  RMM-DIIS:  cpu time   18.4761: real time   18.5196
    ORTHCH:  cpu time    1.0246: real time    1.0272
       DOS:  cpu time    0.0058: real time    0.0058
    CHARGE:  cpu time    1.0763: real time    1.0778
    MIXING:  cpu time    0.0026: real time    0.0026
    --------------------------------------------
      LOOP:  cpu time   26.1659: real time   26.2295

 eigenvalue-minimisations  : 23226
 total energy-change (2. order) : 0.2365221E-02  (-0.3667163E-02)
 number of electron     127.9999930 magnetization       9.1020278
 augmentation part       67.6706015 magnetization       6.6267162

 Broyden mixing:
  rms(total) = 0.71103E-01    rms(broyden)= 0.71102E-01
  rms(prec ) = 0.97320E-01
  weight for this iteration     100.00

 eigenvalues of (default mixing * dielectric matrix)
  average eigenvalue GAMMA=   0.7307
  2.2449  1.1495  1.1495  0.6611  0.6611  0.5261  0.1335  0.2046  0.3170  0.2601

 Free energy of the ion-electron system (eV)
  ---------------------------------------------------
  alpha Z        PSCENC =       529.55838902
  Ewald energy   TEWEN  =     -9177.93412151
  -Hartree energ DENC   =     -3040.56219746
  -exchange      EXHF   =         0.00000000
  -V(xc)+E(xc)   XCENC  =        75.20726903
  PAW double counting   =     12821.16791229   -13165.67519543
  entropy T*S    EENTRO =        -0.00155042
  eigenvalues    EBANDS =       625.59379192
  atomic energy  EATOM  =     11229.46195210
  Solvation  Ediel_sol  =         0.00000000
  ---------------------------------------------------
  free energy    TOTEN  =      -103.18375046 eV

  energy without entropy =     -103.18220004  energy(sigma->0) =     -103.18297525


--------------------------------------------------------------------------------------------------------




--------------------------------------- Iteration      1(  16)  ---------------------------------------


    POTLOK:  cpu time    0.0987: real time    0.0989
    SETDIJ:  cpu time    0.0353: real time    0.0354
    EDDIAG:  cpu time    5.4782: real time    5.4883
  RMM-DIIS:  cpu time   17.7158: real time   17.7539
    ORTHCH:  cpu time    1.0216: real time    1.0232
       DOS:  cpu time    0.0055: real time    0.0055
    CHARGE:  cpu time    1.0659: real time    1.0674
    MIXING:  cpu time    0.0027: real time    0.0027
    --------------------------------------------
[...]
     79      10.7350      0.00000
     80      11.2511      0.00000
     81      11.6666      0.00000
     82      11.7901      0.00000
     83      12.1788      0.00000
     84      12.2396      0.00000


--------------------------------------------------------------------------------------------------------


 soft charge-density along one line, spin component           1
         0         1         2         3         4         5         6         7         8         9
 total charge-density along one line

 soft charge-density along one line, spin component           2
         0         1         2         3         4         5         6         7         8         9
 total charge-density along one line

 pseudopotential strength for first ion, spin component:           1
 -1.732   0.009   0.039  -0.011   0.004  -2.363   0.008   0.038
  0.009  -1.724   0.009   0.007  -0.014   0.008  -2.356   0.009
  0.039   0.009  -1.741  -0.001  -0.009   0.038   0.009  -2.371
 -0.011   0.007  -0.001  -1.718   0.004  -0.011   0.006  -0.001
  0.004  -0.014  -0.009   0.004  -1.757   0.003  -0.013  -0.008
 -2.363   0.008   0.038  -0.011   0.003  -2.925   0.008   0.036
  0.008  -2.356   0.009   0.006  -0.013   0.008  -2.918   0.008
  0.038   0.009  -2.371  -0.001  -0.008   0.036   0.008  -2.933
 -0.011   0.006  -0.001  -2.350   0.004  -0.011   0.006  -0.001
  0.003  -0.013  -0.008   0.004  -2.387   0.003  -0.012  -0.008
  0.007  -0.004  -0.002  -0.001  -0.002   0.007  -0.004  -0.002
  0.012  -0.008  -0.004  -0.002  -0.003   0.012  -0.007  -0.004
  0.004  -0.005   0.006  -0.000   0.010   0.003  -0.005   0.005
 -0.000  -0.009  -0.010   0.004   0.000  -0.000  -0.008  -0.010
 -0.009  -0.000  -0.000  -0.005   0.001  -0.008  -0.000  -0.000
  0.005  -0.004   0.006  -0.000   0.010   0.005  -0.004   0.006
 -0.000  -0.009  -0.011   0.006  -0.000  -0.000  -0.009  -0.010
 -0.009  -0.000  -0.001  -0.004   0.002  -0.009  -0.000  -0.001
 pseudopotential strength for first ion, spin component:           2
 -1.576   0.001  -0.035  -0.003  -0.001  -2.215   0.001  -0.034
  0.001  -1.560  -0.011  -0.009   0.015   0.001  -2.200  -0.010
 -0.035  -0.011  -1.514   0.004  -0.001  -0.034  -0.010  -2.155
 -0.003  -0.009   0.004  -1.561   0.003  -0.003  -0.009   0.004
 -0.001   0.015  -0.001   0.003  -1.518  -0.001   0.015  -0.001
 -2.215   0.001  -0.034  -0.003  -0.001  -2.784   0.001  -0.032
  0.001  -2.200  -0.010  -0.009   0.015   0.001  -2.770  -0.010
 -0.034  -0.010  -2.155   0.004  -0.001  -0.032  -0.010  -2.726
 -0.003  -0.009   0.004  -2.201   0.003  -0.003  -0.009   0.003
 -0.001   0.015  -0.001   0.003  -2.159  -0.001   0.014  -0.001
 -0.006   0.002  -0.001  -0.001   0.001  -0.006   0.002  -0.001
 -0.011   0.003  -0.002  -0.001   0.001  -0.011   0.004  -0.002
 -0.004  -0.009   0.005   0.000   0.009  -0.004  -0.009   0.005
  0.000  -0.005  -0.011  -0.004   0.000   0.000  -0.005  -0.010
 -0.005   0.000   0.001  -0.009  -0.002  -0.005   0.000   0.001
 -0.006  -0.010   0.005   0.000   0.009  -0.005  -0.010   0.004
  0.000  -0.005  -0.011  -0.006   0.000   0.000  -0.005  -0.010
 -0.004   0.000   0.001  -0.010  -0.002  -0.004   0.000   0.001
 total augmentation occupancy for first ion, spin component:           1
  1.981   0.020  -0.016   0.018   0.026  -0.518  -0.007   0.017  -0.043  -0.015  -0.015  -0.001  -0.005  -0.003   0.040  -0.000
  0.020   2.108  -0.006   0.010  -0.013  -0.007  -0.597   0.007  -0.008   0.006  -0.086   0.032   0.027   0.012   0.001  -0.012
 -0.016  -0.006   2.756  -0.003  -0.051   0.017   0.007  -1.051  -0.000   0.031   0.008   0.002   0.047  -0.062   0.004   0.002
  0.018   0.010  -0.003   2.016   0.003  -0.043  -0.008   0.000  -0.535  -0.003   0.031  -0.002   0.002   0.004   0.029  -0.000
  0.026  -0.013  -0.051   0.003   2.806  -0.015   0.006   0.031  -0.003  -1.085   0.002  -0.006   0.065   0.007  -0.005   0.004
 -0.518  -0.007   0.017  -0.043  -0.015   0.829   0.000  -0.016   0.061   0.009   0.011   0.001   0.004   0.002  -0.005   0.000
 -0.007  -0.597   0.007  -0.008   0.006   0.000   0.877   0.000   0.007  -0.012   0.053  -0.020   0.001   0.013  -0.001   0.001
  0.017   0.007  -1.051   0.000   0.031  -0.016   0.000   1.108   0.001  -0.015  -0.003  -0.002  -0.041   0.058  -0.003   0.004
 -0.043  -0.008  -0.000  -0.535  -0.003   0.061   0.007   0.001   0.838   0.003  -0.019   0.001  -0.001  -0.001  -0.002   0.000
 -0.015   0.006   0.031  -0.003  -1.085   0.009  -0.012  -0.015   0.003   1.126  -0.009   0.005  -0.060  -0.004   0.004   0.007
 -0.015  -0.086   0.008   0.031   0.002   0.011   0.053  -0.003  -0.019  -0.009   2.120  -0.278   0.058   0.050   0.001  -0.007
 -0.001   0.032   0.002  -0.002  -0.006   0.001  -0.020  -0.002   0.001   0.005  -0.278   0.046  -0.000   0.001  -0.000  -0.000
 -0.005   0.027   0.047   0.002   0.065   0.004   0.001  -0.041  -0.001  -0.060   0.058  -0.000   0.255  -0.000  -0.001  -0.027
 -0.003   0.012  -0.062   0.004   0.007   0.002   0.013   0.058  -0.001  -0.004   0.050   0.001  -0.000   0.257  -0.000  -0.002
  0.040   0.001   0.004   0.029  -0.005  -0.005  -0.001  -0.003  -0.002   0.004   0.001  -0.000  -0.001  -0.000   0.256   0.000
 -0.000  -0.012   0.002  -0.000   0.004   0.000   0.001   0.004   0.000   0.007  -0.007  -0.000  -0.027  -0.002   0.000   0.003
  0.000  -0.010  -0.005  -0.001   0.000  -0.000   0.000  -0.006   0.000  -0.000  -0.006  -0.000  -0.002  -0.027   0.000   0.000
 -0.011  -0.000  -0.000  -0.011  -0.000   0.001   0.000   0.000   0.001  -0.000  -0.000  -0.000   0.000   0.000  -0.026  -0.000
 total augmentation occupancy for first ion, spin component:           2
  0.277   0.008  -0.329  -0.076   0.038  -0.171  -0.019   0.173   0.075  -0.038  -0.112   0.003  -0.075   0.006   0.037   0.003
  0.008   0.296  -0.043   0.178   0.149  -0.018  -0.177   0.009  -0.177  -0.086   0.045  -0.001  -0.044   0.031  -0.001   0.001
 -0.329  -0.043   0.412  -0.019   0.033   0.175   0.009  -0.198   0.023  -0.018   0.022   0.002  -0.001   0.028  -0.023   0.001
 -0.076   0.178  -0.019   0.241   0.016   0.075  -0.177   0.022  -0.139  -0.015  -0.022  -0.001   0.002  -0.085  -0.038  -0.000
  0.038   0.149   0.033   0.016   0.458  -0.038  -0.087  -0.018  -0.015  -0.222   0.021   0.002   0.012   0.003   0.019   0.001
 -0.171  -0.018   0.175   0.075  -0.038   0.086   0.022  -0.071  -0.067   0.035   0.075  -0.013   0.046  -0.001  -0.024  -0.005
 -0.019  -0.177   0.009  -0.177  -0.087   0.022   0.085   0.010   0.160   0.043  -0.027   0.005   0.027  -0.018   0.003  -0.002
  0.173   0.009  -0.198   0.022  -0.018  -0.071   0.010   0.059  -0.022   0.008  -0.015   0.000  -0.002  -0.024   0.021  -0.001
  0.075  -0.177   0.023  -0.139  -0.015  -0.067   0.160  -0.022   0.059   0.012   0.016  -0.001   0.001   0.055   0.023   0.000
 -0.038  -0.086  -0.018  -0.015  -0.222   0.035   0.043   0.008   0.012   0.068  -0.014  -0.000  -0.013  -0.002  -0.022  -0.001
 -0.112   0.045   0.022  -0.022   0.021   0.075  -0.027  -0.015   0.016  -0.014  -0.042   0.009   0.004  -0.008  -0.003   0.001
  0.003  -0.001   0.002  -0.001   0.002  -0.013   0.005   0.000  -0.001  -0.000   0.009  -0.001   0.003  -0.002  -0.005  -0.000
 -0.075  -0.044  -0.001   0.002   0.012   0.046   0.027  -0.002   0.001  -0.013   0.004   0.003   0.003  -0.006   0.014  -0.000
  0.006   0.031   0.028  -0.085   0.003  -0.001  -0.018  -0.024   0.055  -0.002  -0.008  -0.002  -0.006  -0.005   0.001   0.001
  0.037  -0.001  -0.023  -0.038   0.019  -0.024   0.003   0.021   0.023  -0.022  -0.003  -0.005   0.014   0.001  -0.002  -0.002
  0.003   0.001   0.001  -0.000   0.001  -0.005  -0.002  -0.001   0.000  -0.001   0.001  -0.000  -0.000   0.001  -0.002   0.000
  0.001  -0.002  -0.002   0.003  -0.001  -0.001   0.003   0.002  -0.006   0.000  -0.001   0.000   0.001   0.000  -0.000  -0.000
 -0.002   0.000   0.001   0.001   0.001   0.003   0.000  -0.001  -0.002  -0.000  -0.003   0.001  -0.002   0.000   0.000   0.000


------------------------ aborting loop because EDIFF is reached ----------------------------------------





 total charge     

# of ion       s       p       d       tot
------------------------------------------
    1        0.476   0.421   8.371   9.268
    2        0.476   0.423   8.378   9.277
    3        0.474   0.426   8.386   9.285
    4        0.475   0.423   8.369   9.267
    5        0.475   0.423   8.369   9.267
    6        0.474   0.426   8.386   9.285
    7        0.476   0.423   8.378   9.277
    8        0.476   0.421   8.371   9.268
    9        0.330   0.321   4.924   5.575
   10        0.326   0.317   4.933   5.576
   11        0.325   0.314   4.911   5.550
   12        0.324   0.303   4.944   5.571
   13        0.356   0.364   4.970   5.689
   14        0.358   0.369   4.943   5.670
   15        1.236   1.657   0.285   3.178
   16        1.242   1.652   0.288   3.183
--------------------------------------------------
tot          8.299   8.683  97.206 114.188



 magnetization (x)

# of ion       s       p       d       tot
------------------------------------------
    1       -0.007  -0.004   0.215   0.204
    2       -0.003   0.001   0.222   0.220
    3       -0.006  -0.001   0.220   0.213
    4       -0.007  -0.005   0.205   0.193
    5       -0.007  -0.005   0.205   0.193
    6       -0.006  -0.001   0.220   0.213
    7       -0.003   0.001   0.222   0.220
    8       -0.007  -0.004   0.215   0.204
    9        0.030   0.041   3.509   3.580
   10       -0.033  -0.026  -3.517  -3.576
   11        0.028   0.039   3.566   3.633
   12        0.031   0.007   3.593   3.631
   13        0.024   0.022   3.288   3.334
   14       -0.028  -0.044  -3.269  -3.341
   15       -0.004   0.031  -0.002   0.025
   16        0.005  -0.097  -0.001  -0.093
--------------------------------------------------
tot          0.007  -0.045   8.891   8.853

    CHARGE:  cpu time    1.0483: real time    1.0527
    FORLOC:  cpu time    0.0072: real time    0.0072
    FORNL :  cpu time    8.0528: real time    8.0649
    STRESS:  cpu time   24.3352: real time   24.3788
    FORCOR:  cpu time    0.1020: real time    0.1020
    FORHAR:  cpu time    0.0162: real time    0.0162
    MIXING:  cpu time    0.0041: real time    0.0041
    OFIELD:  cpu time    0.0000: real time    0.0000

  FORCE on cell =-STRESS in cart. coord.  units (eV):
  Direction    XX          YY          ZZ          XY          YZ          ZX
  --------------------------------------------------------------------------------------
  Alpha Z   529.55839   529.55839   529.55839
  Ewald   -2806.64640 -3213.82575 -3157.48946     0.00000    -0.00000    -0.00000
  Hartree  1253.31867   867.14185   919.38764    -0.00000    -0.00000    -0.00000
  E(xc)    -669.84923  -670.25349  -670.40095    -0.00000    -0.00000    -0.00000
  Local    -798.39138    -7.79752  -119.49056    -0.00000    -0.00000     0.00000
  n-local  -148.59028  -146.90306  -147.20746    -0.21587    -0.25788    -0.25995
  augment  1578.57244  1578.14795  1580.97948    -0.00000     0.00000    -0.00000
  Kinetic  1059.96434  1061.27964  1065.19293     1.71893     0.31204     0.93835
  Fock        0.00000     0.00000     0.00000     0.00000     0.00000     0.00000
  -------------------------------------------------------------------------------------
  Total      -2.06345    -2.65199     0.53001    -0.00000     0.00000     0.00000
  in kB     -15.55862   -19.99623     3.99635    -0.00000     0.00000     0.00000
  external pressure =      -10.52 kB  Pullay stress =        0.00 kB


 VOLUME and BASIS-vectors are now :
 -----------------------------------------------------------------------------
  energy-cutoff  :      550.00
  volume of cell :      212.49
      direct lattice vectors                 reciprocal lattice vectors
     5.967299489  0.000000000  0.000000000     0.167579992  0.000000000  0.000000000
     0.000000000  5.967299489  0.000000000     0.000000000  0.167579992  0.000000000
     0.000000000  0.000000000  5.967299489     0.000000000  0.000000000  0.167579992

  length of vectors
     5.967299489  5.967299489  5.967299489     0.167579992  0.167579992  0.167579992


 FORCES acting on ions
    electron-ion (+dipol)            ewald-force                    non-local-force                 convergence-correction
 -----------------------------------------------------------------------------------------------
   0.367E+01 0.169E+03 0.154E+03   -.366E+01 -.167E+03 -.152E+03   -.199E-01 -.221E+01 -.231E+01   0.453E-02 0.199E-01 -.202E-02
   -.367E+01 0.169E+03 0.154E+03   0.366E+01 -.167E+03 -.152E+03   0.199E-01 -.221E+01 -.231E+01   -.453E-02 0.199E-01 -.202E-02
   0.367E+01 -.169E+03 0.154E+03   -.366E+01 0.167E+03 -.152E+03   -.199E-01 0.221E+01 -.231E+01   0.453E-02 -.199E-01 -.202E-02
   -.367E+01 -.169E+03 0.154E+03   0.366E+01 0.167E+03 -.152E+03   0.199E-01 0.221E+01 -.231E+01   -.453E-02 -.199E-01 -.202E-02
   0.367E+01 0.169E+03 -.154E+03   -.366E+01 -.167E+03 0.152E+03   -.199E-01 -.221E+01 0.231E+01   0.453E-02 0.199E-01 0.202E-02
   -.367E+01 0.169E+03 -.154E+03   0.366E+01 -.167E+03 0.152E+03   0.199E-01 -.221E+01 0.231E+01   -.453E-02 0.199E-01 0.202E-02
   0.367E+01 -.169E+03 -.154E+03   -.366E+01 0.167E+03 0.152E+03   -.199E-01 0.221E+01 0.231E+01   0.453E-02 -.199E-01 0.202E-02
   -.367E+01 -.169E+03 -.154E+03   0.366E+01 0.167E+03 0.152E+03   0.199E-01 0.221E+01 0.231E+01   -.453E-02 -.199E-01 0.202E-02
   0.197E-12 0.151E-11 0.124E-11   0.279E-13 0.147E-13 0.241E-13   0.000E+00 0.000E+00 0.000E+00   0.886E-14 -.438E-13 0.328E-13
   -.320E-13 0.213E-12 -.447E-13   0.430E-13 0.501E-13 -.754E-13   0.000E+00 0.000E+00 0.000E+00   -.113E-13 -.534E-13 0.189E-13
   -.339E-13 -.309E-13 0.199E-12   0.530E-13 -.285E-13 -.193E-13   0.000E+00 0.000E+00 0.000E+00   -.181E-13 0.191E-13 -.301E-13
   0.205E-12 -.254E-13 0.261E-11   0.312E-13 0.567E-13 0.162E-13   0.000E+00 0.000E+00 0.000E+00   0.183E-13 0.258E-13 -.461E-13
   0.193E-12 0.377E-12 0.112E-11   0.439E-13 -.582E-13 0.243E-14   0.000E+00 0.000E+00 0.000E+00   -.121E-14 -.215E-13 -.180E-13
   -.398E-13 0.206E-12 0.184E-12   -.112E-12 -.725E-13 0.166E-13   0.000E+00 0.000E+00 0.000E+00   -.435E-14 -.214E-13 -.150E-13
   -.203E-13 -.725E-14 -.623E-14   -.188E-13 -.310E-13 -.108E-13   0.000E+00 0.000E+00 0.000E+00   -.339E-14 0.118E-13 0.124E-13
   -.657E-15 0.387E-13 0.542E-12   -.290E-13 -.614E-14 0.141E-13   0.000E+00 0.000E+00 0.000E+00   0.241E-14 0.111E-13 0.153E-13
 -----------------------------------------------------------------------------------------------
   0.135E-10 0.115E-10 0.708E-10   0.413E-15 -.463E-13 0.139E-12   -.139E-16 0.000E+00 0.000E+00   0.225E-12 0.135E-12 -.326E-12


 POSITION                                       TOTAL-FORCE (eV/Angst)
 -----------------------------------------------------------------------------------
      1.49587      1.59934      1.58280        -0.003845     -0.002358     -0.005695
      4.47142      1.59934      1.58280         0.003845     -0.002358     -0.005695
      1.49587      4.36796      1.58280        -0.003845      0.002358     -0.005695
      4.47142      4.36796      1.58280         0.003845      0.002358     -0.005695
      1.49587      1.59934      4.38450        -0.003845     -0.002358      0.005695
      4.47142      1.59934      4.38450         0.003845     -0.002358      0.005695
      1.49587      4.36796      4.38450        -0.003845      0.002358      0.005695
      4.47142      4.36796      4.38450         0.003845      0.002358      0.005695
      2.98365      2.98365      0.00000         0.000000      0.000000      0.000000
      0.00000      2.98365      0.00000         0.000000      0.000000      0.000000
      0.00000      0.00000      2.98365         0.000000      0.000000      0.000000
      2.98365      0.00000      2.98365         0.000000      0.000000      0.000000
      2.98365      2.98365      2.98365         0.000000      0.000000      0.000000
      0.00000      2.98365      2.98365         0.000000      0.000000      0.000000
      0.00000      0.00000      0.00000         0.000000      0.000000      0.000000
      2.98365      0.00000      0.00000         0.000000      0.000000      0.000000
 -----------------------------------------------------------------------------------
    total drift:                                0.000000      0.000000      0.000000


--------------------------------------------------------------------------------------------------------



  FREE ENERGIE OF THE ION-ELECTRON SYSTEM (eV)
  ---------------------------------------------------
  free  energy   TOTEN  =      -103.18427503 eV

  energy  without entropy=     -103.18276987  energy(sigma->0) =     -103.18352245



--------------------------------------------------------------------------------------------------------


    POTLOK:  cpu time    0.1342: real time    0.1345


--------------------------------------------------------------------------------------------------------




--------------------------------------------------------------------------------------------------------


  
 reached required accuracy - stopping structural energy minimisation
     LOOP+:  cpu time  655.2987: real time  657.5181
    4ORBIT:  cpu time    0.0000: real time    0.0000



 total charge     

# of ion       s       p       d       tot
------------------------------------------
    1        0.476   0.421   8.371   9.268
    2        0.476   0.423   8.378   9.277
    3        0.474   0.426   8.386   9.285
    4        0.475   0.423   8.369   9.267
    5        0.475   0.423   8.369   9.267
    6        0.474   0.426   8.386   9.285
    7        0.476   0.423   8.378   9.277
    8        0.476   0.421   8.371   9.268
    9        0.330   0.321   4.924   5.575
   10        0.326   0.317   4.933   5.576
   11        0.325   0.314   4.911   5.550
   12        0.324   0.303   4.944   5.571
   13        0.356   0.364   4.970   5.689
   14        0.358   0.369   4.943   5.670
   15        1.236   1.657   0.285   3.178
   16        1.242   1.652   0.288   3.183
--------------------------------------------------
tot          8.299   8.683  97.206 114.188



 magnetization (x)

# of ion       s       p       d       tot
------------------------------------------
    1       -0.007  -0.004   0.215   0.204
    2       -0.003   0.001   0.222   0.220
    3       -0.006  -0.001   0.220   0.213
    4       -0.007  -0.005   0.205   0.193
    5       -0.007  -0.005   0.205   0.193
    6       -0.006  -0.001   0.220   0.213
    7       -0.003   0.001   0.222   0.220
    8       -0.007  -0.004   0.215   0.204
    9        0.030   0.041   3.509   3.580
   10       -0.033  -0.026  -3.517  -3.576
   11        0.028   0.039   3.566   3.633
   12        0.031   0.007   3.593   3.631
   13        0.024   0.022   3.288   3.334
   14       -0.028  -0.044  -3.269  -3.341
   15       -0.004   0.031  -0.002   0.025
   16        0.005  -0.097  -0.001  -0.093
--------------------------------------------------
tot          0.007  -0.045   8.891   8.853


 total amount of memory used by VASP MPI-rank0   138905. kBytes
=======================================================================

   base      :      30000. kBytes
   nonlr-proj:       6809. kBytes
   fftplans  :       1269. kBytes
   grid      :       6573. kBytes
   one-center:        497. kBytes
   wavefun   :      93757. kBytes

  
  
 General timing and accounting informations for this job:
 ========================================================
  
                  Total CPU time used (sec):      670.630
                            User time (sec):      635.100
                          System time (sec):       35.529
                         Elapsed time (sec):      673.806
  
                   Maximum memory used (kb):      182620.
                   Average memory used (kb):           0.
  
                          Minor page faults:     16798861
                          Major page faults:            9
                 Voluntary context switches:         1983
