 vasp.5.4.4.18Apr17-6-g9f103f2a35 (build May 21 2018 20:56:50) complex           
 executed on             LinuxGNU date 2021.10.15  15:49:18
 running on   12 total cores
 distrk:  each k-point on   12 cores,    1 groups
 distr:  one band on NCORES_PER_BAND=   1 cores,   12 groups


--------------------------------------------------------------------------------------------------------


 INCAR:
 POTCAR:    PAW_PBE Ni 02Aug2007                  
 POTCAR:    PAW_PBE Mn 06Sep2000                  
 POTCAR:    PAW_PBE In 08Apr2002                  

 ----------------------------------------------------------------------------- 
|                                                                             |
|           W    W    AA    RRRRR   N    N  II  N    N   GGGG   !!!           |
|           W    W   A  A   R    R  NN   N  II  NN   N  G    G  !!!           |
|           W    W  A    A  R    R  N N  N  II  N N  N  G       !!!           |
|           W WW W  AAAAAA  RRRRR   N  N N  II  N  N N  G  GGG   !            |
|           WW  WW  A    A  R   R   N   NN  II  N   NN  G    G                |
|           W    W  A    A  R    R  N    N  II  N    N   GGGG   !!!           |
|                                                                             |
|      For optimal performance we recommend to set                            |
|        NCORE= 4 - approx SQRT( number of cores)                             |
|      NCORE specifies how many cores store one orbital (NPAR=cpu/NCORE).     |
|      This setting can  greatly improve the performance of VASP for DFT.     |
|      The default,   NCORE=1            might be grossly inefficient         |
|      on modern multi-core architectures or massively parallel machines.     |
|      Do your own testing !!!!                                               |
|      Unfortunately you need to use the default for GW and RPA calculations. |
|      (for HF NCORE is supported but not extensively tested yet)             |
|                                                                             |
 ----------------------------------------------------------------------------- 

 POTCAR:    PAW_PBE Ni 02Aug2007                  
   VRHFIN =Ni:                                                                  
   LEXCH  = PE                                                                  
   EATOM  =  1077.6739 eV,   79.2068 Ry                                         
                                                                                
   TITEL  = PAW_PBE Ni 02Aug2007                                                
   LULTRA =        F    use ultrasoft PP ?                                      
   IUNSCR =        1    unscreen: 0-lin 1-nonlin 2-no                           
   RPACOR =    2.000    partial core radius                                     
   POMASS =   58.690; ZVAL   =   10.000    mass and valenz                      
   RCORE  =    2.300    outmost cutoff radius                                   
   RWIGS  =    2.430; RWIGS  =    1.286    wigner-seitz radius (au A)           
   ENMAX  =  269.532; ENMIN  =  202.149 eV                                      
   RCLOC  =    1.201    cutoff for local pot                                    
   LCOR   =        T    correct aug charges                                     
   LPAW   =        T    paw PP                                                  
   EAUG   =  544.565                                                            
   DEXC   =    0.000                                                            
   RMAX   =    2.357    core radius for proj-oper                               
   RAUG   =    1.300    factor for augmentation sphere                          
   RDEP   =    2.390    radius for radial grids                                 
   RDEPT  =    1.838    core radius for aug-charge                              
                                                                                
   Atomic configuration                                                         
    9 entries                                                                   
     n  l   j            E        occ.                                          
     1  0  0.50     -8206.4253   2.0000                                         
     2  0  0.50      -976.1748   2.0000                                         
     2  1  1.50      -839.0571   6.0000                                         
     3  0  0.50      -105.9991   2.0000                                         
     3  1  1.50       -66.4603   6.0000                                         
     3  2  2.50        -4.6458   9.0000                                         
     4  0  0.50        -4.4926   1.0000                                         
     4  1  1.50        -4.0817   0.0000                                         
     4  3  2.50        -1.3606   0.0000                                         
   Description                                                                  
     l       E           TYP  RCUT    TYP  RCUT                                 
     2     -4.6457903     23  2.300                                             
     2     -6.0063729     23  2.300                                             
     0     -4.4925590     23  2.300                                             
     0      5.0102601     23  2.300                                             
     1     -2.7211652     23  2.300                                             
     1     16.5183231     23  2.300                                             
  local pseudopotential read in
  partial core-charges read in
  partial kinetic energy density read in
  atomic valenz-charges read in
  non local Contribution for L=           2  read in
    real space projection operators read in
  non local Contribution for L=           2  read in
    real space projection operators read in
  non local Contribution for L=           0  read in
    real space projection operators read in
  non local Contribution for L=           0  read in
    real space projection operators read in
  non local Contribution for L=           1  read in
    real space projection operators read in
  non local Contribution for L=           1  read in
    real space projection operators read in
    PAW grid and wavefunctions read in

   number of l-projection  operators is LMAX  =           6
   number of lm-projection operators is LMMAX =          18

 POTCAR:    PAW_PBE Mn 06Sep2000                  
   VRHFIN =Mn: d6 s1                                                            
   LEXCH  = PE                                                                  
   EATOM  =   416.7541 eV,   30.6306 Ry                                         
                                                                                
   TITEL  = PAW_PBE Mn 06Sep2000                                                
   LULTRA =        F    use ultrasoft PP ?                                      
   IUNSCR =        1    unscreen: 0-lin 1-nonlin 2-no                           
   RPACOR =    2.000    partial core radius                                     
   POMASS =   54.938; ZVAL   =    7.000    mass and valenz                      
   RCORE  =    2.300    outmost cutoff radius                                   
   RWIGS  =    2.500; RWIGS  =    1.323    wigner-seitz radius (au A)           
   ENMAX  =  269.864; ENMIN  =  202.398 eV                                      
   RCLOC  =    1.725    cutoff for local pot                                    
   LCOR   =        T    correct aug charges                                     
   LPAW   =        T    paw PP                                                  
   EAUG   =  500.711                                                            
   DEXC   =    0.000                                                            
   RMAX   =    2.343    core radius for proj-oper                               
   RAUG   =    1.300    factor for augmentation sphere                          
   RDEP   =    2.338    radius for radial grids                                 
   RDEPT  =    1.911    core radius for aug-charge                              
                                                                                
   Atomic configuration                                                         
    9 entries                                                                   
     n  l   j            E        occ.                                          
     1  0  0.50     -6424.8288   2.0000                                         
     2  0  0.50      -739.1154   2.0000                                         
     2  1  1.50      -625.3949   6.0000                                         
     3  0  0.50       -81.6100   2.0000                                         
     3  1  1.50       -50.4667   6.0000                                         
     3  2  2.50        -3.3745   6.0000                                         
     4  0  0.50        -4.1331   1.0000                                         
     4  1  0.50        -4.0817   0.0000                                         
     4  3  2.50        -1.3606   0.0000                                         
   Description                                                                  
     l       E           TYP  RCUT    TYP  RCUT                                 
     2     -3.3744664     23  2.300                                             
     2     -4.7350490     23  2.300                                             
     0     -4.1331408     23  2.300                                             
     0      7.6656614     23  2.300                                             
     1     -2.7211652     23  2.300                                             
     1     20.4087390     23  2.300                                             
  local pseudopotential read in
  partial core-charges read in
  partial kinetic energy density read in
  atomic valenz-charges read in
  non local Contribution for L=           2  read in
    real space projection operators read in
  non local Contribution for L=           2  read in
    real space projection operators read in
  non local Contribution for L=           0  read in
    real space projection operators read in
  non local Contribution for L=           0  read in
    real space projection operators read in
  non local Contribution for L=           1  read in
    real space projection operators read in
  non local Contribution for L=           1  read in
    real space projection operators read in
    PAW grid and wavefunctions read in

   number of l-projection  operators is LMAX  =           6
   number of lm-projection operators is LMMAX =          18

 POTCAR:    PAW_PBE In 08Apr2002                  
   VRHFIN =In: s2p1                                                             
   LEXCH  = PE                                                                  
   EATOM  =    53.7908 eV,    3.9535 Ry                                         
                                                                                
   TITEL  = PAW_PBE In 08Apr2002                                                
   LULTRA =        F    use ultrasoft PP ?                                      
   IUNSCR =        1    unscreen: 0-lin 1-nonlin 2-no                           
   RPACOR =    2.400    partial core radius                                     
   POMASS =  114.820; ZVAL   =    3.000    mass and valenz                      
   RCORE  =    3.100    outmost cutoff radius                                   
   RWIGS  =    3.170; RWIGS  =    1.677    wigner-seitz radius (au A)           
   ENMAX  =   95.934; ENMIN  =   71.951 eV                                      
   ICORE  =        3    local potential                                         
   LCOR   =        T    correct aug charges                                     
   LPAW   =        T    paw PP                                                  
   EAUG   =  237.125                                                            
   DEXC   =    0.000                                                            
   RMAX   =    3.168    core radius for proj-oper                               
   RAUG   =    1.300    factor for augmentation sphere                          
   RDEP   =    3.187    radius for radial grids                                 
   RDEPT  =    2.711    core radius for aug-charge                              
                                                                                
   Atomic configuration                                                         
   13 entries                                                                   
     n  l   j            E        occ.                                          
     1  0  0.50    -27747.9169   2.0000                                         
     2  0  0.50     -4154.4438   2.0000                                         
     2  1  1.50     -3728.4305   6.0000                                         
     3  0  0.50      -788.3680   2.0000                                         
     3  1  1.50      -648.9215   6.0000                                         
     3  2  2.50      -432.5893  10.0000                                         
     4  0  0.50      -119.6363   2.0000                                         
     4  1  1.50       -78.1086   6.0000                                         
     4  2  2.50       -18.6227  10.0000                                         
     5  0  0.50        -8.2107   2.0000                                         
     5  1  0.50        -2.5185   1.0000                                         
     5  2  2.50        -1.3606   0.0000                                         
     4  3  2.50        -2.7212   0.0000                                         
   Description                                                                  
     l       E           TYP  RCUT    TYP  RCUT                                 
     0     -8.2107306     23  3.100                                             
     0     -6.1485975     23  3.100                                             
     1     -2.5184867     23  3.100                                             
     1      3.2427302     23  3.100                                             
     2     -1.3605826     23  3.100                                             
     3     -1.3605826     23  3.100                                             
  local pseudopotential read in
  partial core-charges read in
  partial kinetic energy density read in
  atomic valenz-charges read in
  non local Contribution for L=           0  read in
    real space projection operators read in
  non local Contribution for L=           0  read in
    real space projection operators read in
  non local Contribution for L=           1  read in
    real space projection operators read in
  non local Contribution for L=           1  read in
    real space projection operators read in
  non local Contribution for L=           2  read in
    real space projection operators read in
    PAW grid and wavefunctions read in

   number of l-projection  operators is LMAX  =           5
   number of lm-projection operators is LMMAX =          13

 Optimization of the real space projectors (new method)

 maximal supplied QI-value         = 16.25
 optimisation between [QCUT,QGAM] = [ 11.86, 23.89] = [ 39.41,159.82] Ry 
 Optimized for a Real-space Cutoff    1.33 Angstroem

   l    n(q)    QCUT    max X(q) W(low)/X(q) W(high)/X(q)  e(spline) 
   2      9    11.864    60.317    0.21E-03    0.51E-03    0.25E-06
   2      9    11.864    55.921    0.21E-03    0.51E-03    0.26E-06
   0      9    11.864    51.690    0.22E-03    0.30E-04    0.17E-06
   0      9    11.864    30.015    0.20E-03    0.28E-04    0.15E-06
   1      9    11.864    18.849    0.76E-04    0.33E-03    0.17E-06
   1      9    11.864    14.624    0.60E-04    0.28E-03    0.15E-06
 Optimization of the real space projectors (new method)

 maximal supplied QI-value         = 16.25
 optimisation between [QCUT,QGAM] = [ 11.86, 23.89] = [ 39.41,159.82] Ry 
 Optimized for a Real-space Cutoff    1.36 Angstroem

   l    n(q)    QCUT    max X(q) W(low)/X(q) W(high)/X(q)  e(spline) 
   2      9    11.864   110.144    0.49E-03    0.50E-03    0.21E-06
   2      9    11.864   103.200    0.49E-03    0.51E-03    0.22E-06
   0     10    11.864    68.437    0.12E-03    0.41E-04    0.21E-06
   0     10    11.864    33.971    0.11E-03    0.36E-04    0.19E-06
   1      9    11.864    17.065    0.24E-03    0.26E-03    0.93E-07
   1      9    11.864    12.540    0.19E-03    0.20E-03    0.80E-07
 Optimization of the real space projectors (new method)

 maximal supplied QI-value         = 12.09
 optimisation between [QCUT,QGAM] = [ 11.97, 23.95] = [ 40.14,160.58] Ry 
 Optimized for a Real-space Cutoff    1.63 Angstroem

   l    n(q)    QCUT    max X(q) W(low)/X(q) W(high)/X(q)  e(spline) 
   0     12    11.973   106.980    0.33E-03    0.16E-03    0.25E-05
   0     12    11.973    81.086    0.37E-03    0.18E-03    0.28E-05
   1     11    11.973    53.097    0.22E-03    0.42E-03    0.40E-05
   1     11    11.973    32.621    0.20E-03    0.40E-03    0.37E-05
   2     11    11.973     8.820    0.30E-03    0.17E-03    0.41E-06
  PAW_PBE Ni 02Aug2007                  :
 energy of atom  1       EATOM=-1077.6739
 kinetic energy error for atom=    0.0027 (will be added to EATOM!!)
  PAW_PBE Mn 06Sep2000                  :
 energy of atom  2       EATOM= -416.7541
 kinetic energy error for atom=    0.0022 (will be added to EATOM!!)
  PAW_PBE In 08Apr2002                  :
 energy of atom  3       EATOM=  -53.7908
 kinetic energy error for atom=    0.0000 (will be added to EATOM!!)


 POSCAR: Ni2MnIn                                 
  positions in direct lattice
  velocities in cartesian coordinates
 exchange correlation table for  LEXCH =        8
   RHO(1)=    0.500       N(1)  =     2000
   RHO(2)=  100.500       N(2)  =     4000



--------------------------------------------------------------------------------------------------------


 ion  position               nearest neighbor table
   1  0.246  0.250  0.250-  14 2.57  12 2.57  11 2.57  15 2.58  16 2.59  13 2.60  10 2.60   9 2.60
                             2 2.94   3 2.98   5 2.98   5 2.99   3 2.99   2 3.03
   2  0.754  0.250  0.250-  14 2.57  12 2.57  11 2.57  15 2.58  16 2.59  13 2.60  10 2.60   9 2.60
                             1 2.94   4 2.98   6 2.98   6 2.99   4 2.99   1 3.03
   3  0.246  0.750  0.250-  14 2.57  12 2.57  11 2.57  15 2.58  16 2.59  13 2.60  10 2.60   9 2.60
                             4 2.94   1 2.98   7 2.98   1 2.99   7 2.99   4 3.03
   4  0.754  0.750  0.250-  14 2.57  12 2.57  11 2.57  15 2.58  16 2.59  13 2.60  10 2.60   9 2.60
                             3 2.94   2 2.98   8 2.98   2 2.99   8 2.99   3 3.03
   5  0.246  0.250  0.750-  14 2.57  12 2.57  11 2.57  15 2.58  16 2.59  13 2.60  10 2.60   9 2.60
                             6 2.94   1 2.98   7 2.98   1 2.99   7 2.99   6 3.03
   6  0.754  0.250  0.750-  14 2.57  12 2.57  11 2.57  15 2.58  16 2.59  13 2.60  10 2.60   9 2.60
                             5 2.94   2 2.98   8 2.98   2 2.99   8 2.99   5 3.03
   7  0.246  0.750  0.750-  14 2.57  12 2.57  11 2.57  15 2.58  16 2.59  13 2.60  10 2.60   9 2.60
                             8 2.94   5 2.98   3 2.98   3 2.99   5 2.99   8 3.03
   8  0.754  0.750  0.750-  14 2.57  12 2.57  11 2.57  15 2.58  16 2.59  13 2.60  10 2.60   9 2.60
                             7 2.94   6 2.98   4 2.98   4 2.99   6 2.99   7 3.03
   9  0.500  0.000  0.000-   1 2.60   2 2.60   3 2.60   4 2.60   5 2.60   6 2.60   7 2.60   8 2.60
                            10 2.98  13 2.98  15 2.98  13 2.98  10 2.98  15 2.98
  10  0.500  0.500  0.000-   1 2.60   2 2.60   3 2.60   4 2.60   5 2.60   6 2.60   7 2.60   8 2.60
                             9 2.98  11 2.98  16 2.98  16 2.98   9 2.98  11 2.98
  11  0.000  0.500  0.000-   1 2.57   2 2.57   3 2.57   4 2.57   5 2.57   6 2.57   7 2.57   8 2.57
                            10 2.98  14 2.98  15 2.98  14 2.98  15 2.98  10 2.98
  12  0.000  0.000  0.500-   1 2.57   2 2.57   3 2.57   4 2.57   5 2.57   6 2.57   7 2.57   8 2.57
                            13 2.98  14 2.98  15 2.98  15 2.98  14 2.98  13 2.98
  13  0.500  0.000  0.500-   1 2.60   2 2.60   3 2.60   4 2.60   5 2.60   6 2.60   7 2.60   8 2.60
                             9 2.98  12 2.98  16 2.98   9 2.98  16 2.98  12 2.98
  14  0.000  0.500  0.500-   1 2.57   2 2.57   3 2.57   4 2.57   5 2.57   6 2.57   7 2.57   8 2.57
                            11 2.98  12 2.98  16 2.98  11 2.98  12 2.98  16 2.98
  15  0.000  0.000  0.000-   1 2.58   2 2.58   3 2.58   4 2.58   5 2.58   6 2.58   7 2.58   8 2.58
                             9 2.98  11 2.98  12 2.98  12 2.98  11 2.98   9 2.98
  16  0.500  0.500  0.500-   1 2.59   2 2.59   3 2.59   4 2.59   5 2.59   6 2.59   7 2.59   8 2.59
                            10 2.98  13 2.98  14 2.98  10 2.98  13 2.98  14 2.98

  LATTYP: Found a simple cubic cell.
 ALAT       =     5.9688367985
  
  Lattice vectors:
  
 A1 = (   5.9688367985,   0.0000000000,   0.0000000000)
 A2 = (   0.0000000000,   5.9688367985,   0.0000000000)
 A3 = (   0.0000000000,   0.0000000000,   5.9688367985)


Analysis of symmetry for initial positions (statically):
=====================================================================
 Subroutine PRICEL returns:
 Original cell was already a primitive cell.
 

 Routine SETGRP: Setting up the symmetry group for a 
 simple cubic supercell.


 Subroutine GETGRP returns: Found 16 space group operations
 (whereof 16 operations were pure point group operations)
 out of a pool of 48 trial point group operations.


The static configuration has the point symmetry D_4h.


Analysis of symmetry for dynamics (positions and initial velocities):
=====================================================================
 Subroutine PRICEL returns:
 Original cell was already a primitive cell.
 

 Routine SETGRP: Setting up the symmetry group for a 
 simple cubic supercell.


 Subroutine GETGRP returns: Found 16 space group operations
 (whereof 16 operations were pure point group operations)
 out of a pool of 48 trial point group operations.


The dynamic configuration has the point symmetry D_4h.


Analysis of structural, dynamic, and magnetic symmetry:
=====================================================================
 Subroutine PRICEL returns:
 Original cell was already a primitive cell.
 

 Routine SETGRP: Setting up the symmetry group for a 
 simple cubic supercell.


 Subroutine GETGRP returns: Found 16 space group operations
 (whereof 16 operations were pure point group operations)
 out of a pool of 48 trial point group operations.


The magnetic configuration has the point symmetry D_4h.


 Subroutine INISYM returns: Found 16 space group operations
 (whereof 16 operations are pure point group operations),
 and found     1 'primitive' translations



 KPOINTS: k-points                                

Automatic generation of k-mesh.
Space group operators:
 irot       det(A)        alpha          n_x          n_y          n_z        tau_x        tau_y        tau_z
    1     1.000000     0.000001     1.000000     0.000000     0.000000     0.000000     0.000000     0.000000
    2    -1.000000     0.000001     1.000000     0.000000     0.000000     0.000000     0.000000     0.000000
    3     1.000000   180.000000     0.000000     0.707107     0.707107     0.000000     0.000000     0.000000
    4    -1.000000   180.000000     0.000000     0.707107     0.707107     0.000000     0.000000     0.000000
    5     1.000000   180.000000     0.000000     0.000000     1.000000     0.000000     0.000000     0.000000
    6    -1.000000   180.000000     0.000000     0.000000     1.000000     0.000000     0.000000     0.000000
    7     1.000000    90.000000    -1.000000     0.000000     0.000000     0.000000     0.000000     0.000000
    8    -1.000000    90.000000    -1.000000     0.000000     0.000000     0.000000     0.000000     0.000000
    9     1.000000   180.000000     1.000000     0.000000     0.000000     0.000000     0.000000     0.000000
   10    -1.000000   180.000000     1.000000     0.000000     0.000000     0.000000     0.000000     0.000000
   11     1.000000    90.000000     1.000000     0.000000     0.000000     0.000000     0.000000     0.000000
   12    -1.000000    90.000000     1.000000     0.000000     0.000000     0.000000     0.000000     0.000000
   13     1.000000   180.000000     0.000000     1.000000     0.000000     0.000000     0.000000     0.000000
   14    -1.000000   180.000000     0.000000     1.000000     0.000000     0.000000     0.000000     0.000000
   15     1.000000   180.000000     0.000000    -0.707107     0.707107     0.000000     0.000000     0.000000
   16    -1.000000   180.000000     0.000000    -0.707107     0.707107     0.000000     0.000000     0.000000
 
 Subroutine IBZKPT returns following result:
 ===========================================
 
 Found     40 irreducible k-points:
 
 Following reciprocal coordinates:
            Coordinates               Weight
  0.000000  0.000000  0.000000      1.000000
  0.142857  0.000000  0.000000      2.000000
  0.285714  0.000000  0.000000      2.000000
  0.428571  0.000000  0.000000      2.000000
  0.000000  0.142857  0.000000      4.000000
  0.142857  0.142857  0.000000      8.000000
  0.285714  0.142857  0.000000      8.000000
  0.428571  0.142857  0.000000      8.000000
  0.000000  0.285714  0.000000      4.000000
  0.142857  0.285714  0.000000      8.000000
  0.285714  0.285714  0.000000      8.000000
  0.428571  0.285714  0.000000      8.000000
  0.000000  0.428571  0.000000      4.000000
  0.142857  0.428571  0.000000      8.000000
  0.285714  0.428571  0.000000      8.000000
  0.428571  0.428571  0.000000      8.000000
  0.000000  0.142857  0.142857      4.000000
  0.142857  0.142857  0.142857      8.000000
  0.285714  0.142857  0.142857      8.000000
  0.428571  0.142857  0.142857      8.000000
  0.000000  0.285714  0.142857      8.000000
  0.142857  0.285714  0.142857     16.000000
  0.285714  0.285714  0.142857     16.000000
  0.428571  0.285714  0.142857     16.000000
  0.000000  0.428571  0.142857      8.000000
  0.142857  0.428571  0.142857     16.000000
  0.285714  0.428571  0.142857     16.000000
  0.428571  0.428571  0.142857     16.000000
  0.000000  0.285714  0.285714      4.000000
  0.142857  0.285714  0.285714      8.000000
  0.285714  0.285714  0.285714      8.000000
  0.428571  0.285714  0.285714      8.000000
  0.000000  0.428571  0.285714      8.000000
  0.142857  0.428571  0.285714     16.000000
  0.285714  0.428571  0.285714     16.000000
  0.428571  0.428571  0.285714     16.000000
  0.000000  0.428571  0.428571      4.000000
  0.142857  0.428571  0.428571      8.000000
  0.285714  0.428571  0.428571      8.000000
  0.428571  0.428571  0.428571      8.000000
 
 Following cartesian coordinates:
            Coordinates               Weight
  0.000000  0.000000  0.000000      1.000000
  0.137859  0.000000  0.000000      2.000000
  0.275718  0.000000  0.000000      2.000000
  0.413577  0.000000  0.000000      2.000000
  0.000000  0.137859  0.000000      4.000000
  0.137859  0.137859  0.000000      8.000000
  0.275718  0.137859  0.000000      8.000000
  0.413577  0.137859  0.000000      8.000000
  0.000000  0.275718  0.000000      4.000000
  0.137859  0.275718  0.000000      8.000000
  0.275718  0.275718  0.000000      8.000000
  0.413577  0.275718  0.000000      8.000000
  0.000000  0.413577  0.000000      4.000000
  0.137859  0.413577  0.000000      8.000000
  0.275718  0.413577  0.000000      8.000000
  0.413577  0.413577  0.000000      8.000000
  0.000000  0.137859  0.137859      4.000000
  0.137859  0.137859  0.137859      8.000000
  0.275718  0.137859  0.137859      8.000000
  0.413577  0.137859  0.137859      8.000000
  0.000000  0.275718  0.137859      8.000000
  0.137859  0.275718  0.137859     16.000000
  0.275718  0.275718  0.137859     16.000000
  0.413577  0.275718  0.137859     16.000000
  0.000000  0.413577  0.137859      8.000000
  0.137859  0.413577  0.137859     16.000000
  0.275718  0.413577  0.137859     16.000000
  0.413577  0.413577  0.137859     16.000000
  0.000000  0.275718  0.275718      4.000000
  0.137859  0.275718  0.275718      8.000000
  0.275718  0.275718  0.275718      8.000000
  0.413577  0.275718  0.275718      8.000000
  0.000000  0.413577  0.275718      8.000000
  0.137859  0.413577  0.275718     16.000000
  0.275718  0.413577  0.275718     16.000000
  0.413577  0.413577  0.275718     16.000000
  0.000000  0.413577  0.413577      4.000000
  0.137859  0.413577  0.413577      8.000000
  0.275718  0.413577  0.413577      8.000000
  0.413577  0.413577  0.413577      8.000000
 


--------------------------------------------------------------------------------------------------------




 Dimension of arrays:
   k-points           NKPTS =     40   k-points in BZ     NKDIM =     40   number of bands    NBANDS=     84
   number of dos      NEDOS =    301   number of ions     NIONS =     16
   non local maximal  LDIM  =      6   non local SUM 2l+1 LMDIM =     18
   total plane-waves  NPLWV =  46656
   max r-space proj   IRMAX =   4027   max aug-charges    IRDMAX=  24947
   dimension x,y,z NGX =    36 NGY =   36 NGZ =   36
   dimension x,y,z NGXF=    72 NGYF=   72 NGZF=   72
   support grid    NGXF=    72 NGYF=   72 NGZF=   72
   ions per type =               8   6   2
   NGX,Y,Z   is equivalent  to a cutoff of  10.03, 10.03, 10.03 a.u.
   NGXF,Y,Z  is equivalent  to a cutoff of  20.05, 20.05, 20.05 a.u.

 SYSTEM =  Testrun for NiMnIn                      
 POSCAR =  Ni2MnIn                                 

 Startparameter for this run:
   NWRITE =      2    write-flag & timer
   PREC   = normal    normal or accurate (medium, high low for compatibility)
   ISTART =      0    job   : 0-new  1-cont  2-samecut
   ICHARG =      2    charge: 1-file 2-atom 10-const
   ISPIN  =      2    spin polarized calculation?
   LNONCOLLINEAR =      F non collinear calculations
   LSORBIT =      F    spin-orbit coupling
   INIWAV =      1    electr: 0-lowe 1-rand  2-diag
   LASPH  =      F    aspherical Exc in radial PAW
   METAGGA=      F    non-selfconsistent MetaGGA calc.

 Electronic Relaxation 1
   ENCUT  =  550.0 eV  40.42 Ry    6.36 a.u.  11.41 11.41 11.41*2*pi/ulx,y,z
   ENINI  =  550.0     initial cutoff
   ENAUG  =  544.6 eV  augmentation charge cutoff
   NELM   =     60;   NELMIN=  2; NELMDL= -5     # of ELM steps 
   EDIFF  = 0.1E-04   stopping-criterion for ELM
   LREAL  =      T    real-space projection
   NLSPLINE    = F    spline interpolate recip. space projectors
   LCOMPAT=      F    compatible to vasp.4.4
   GGA_COMPAT  = T    GGA compatible to vasp.4.4-vasp.4.6
   LMAXPAW     = -100 max onsite density
   LMAXMIX     =    2 max onsite mixed and CHGCAR
   VOSKOWN=      0    Vosko Wilk Nusair interpolation
   ROPT   =   -0.00050  -0.00050  -0.00050
 Ionic relaxation
   EDIFFG = -.1E-01   stopping-criterion for IOM
   NSW    =   1000    number of steps for IOM
   NBLOCK =      1;   KBLOCK =   1000    inner block; outer block 
   IBRION =      2    ionic relax: 0-MD 1-quasi-New 2-CG
   NFREE  =      1    steps in history (QN), initial steepest desc. (CG)
   ISIF   =      2    stress and relaxation
   IWAVPR =     11    prediction:  0-non 1-charg 2-wave 3-comb
   ISYM   =      2    0-nonsym 1-usesym 2-fastsym
   LCORR  =      T    Harris-Foulkes like correction to forces

   POTIM  = 0.5000    time-step for ionic-motion
   TEIN   =    0.0    initial temperature
   TEBEG  =    0.0;   TEEND  =   0.0 temperature during run
   SMASS  =  -3.00    Nose mass-parameter (am)
   estimated Nose-frequenzy (Omega)   =  0.10E-29 period in steps =****** mass=  -0.814E-27a.u.
   SCALEE = 1.0000    scale energy and forces
   NPACO  =    256;   APACO  = 16.0  distance and # of slots for P.C.
   PSTRESS=    0.0 pullay stress

  Mass of Ions in am
   POMASS =  58.69 54.94114.82
  Ionic Valenz
   ZVAL   =  10.00  7.00  3.00
  Atomic Wigner-Seitz radii
   RWIGS  =  -1.00 -1.00 -1.00
  virtual crystal weights 
   VCA    =   1.00  1.00  1.00
   NELECT =     128.0000    total number of electrons
   NUPDOWN=      -1.0000    fix difference up-down

 DOS related values:
   EMIN   =  10.00;   EMAX   =-10.00  energy-range for DOS
   EFERMI =   0.00
   ISMEAR =     0;   SIGMA  =   0.02  broadening in eV -4-tet -1-fermi 0-gaus

 Electronic relaxation 2 (details)
   IALGO  =     68    algorithm
   LDIAG  =      T    sub-space diagonalisation (order eigenvalues)
   LSUBROT=      F    optimize rotation matrix (better conditioning)
   TURBO    =      0    0=normal 1=particle mesh
   IRESTART =      0    0=no restart 2=restart with 2 vectors
   NREBOOT  =      0    no. of reboots
   NMIN     =      0    reboot dimension
   EREF     =   0.00    reference energy to select bands
   IMIX   =      4    mixing-type and parameters
     AMIX     =   0.40;   BMIX     =  1.00
     AMIX_MAG =   1.60;   BMIX_MAG =  1.00
     AMIN     =   0.10
     WC   =   100.;   INIMIX=   1;  MIXPRE=   1;  MAXMIX= -45

 Intra band minimization:
   WEIMIN = 0.0010     energy-eigenvalue tresh-hold
   EBREAK =  0.30E-07  absolut break condition
   DEPER  =   0.30     relativ break condition  

   TIME   =   0.40     timestep for ELM

  volume/ion in A,a.u.               =      13.29        89.69
  Fermi-wavevector in a.u.,A,eV,Ry     =   1.382256  2.612085 25.995718  1.910631
  Thomas-Fermi vector in A             =   2.506964

 Write flags
   LWAVE        =      F    write WAVECAR
   LDOWNSAMPLE  =      F    k-point downsampling of WAVECAR
   LCHARG       =      T    write CHGCAR
   LVTOT        =      F    write LOCPOT, total local potential
   LVHAR        =      F    write LOCPOT, Hartree potential only
   LELF         =      F    write electronic localiz. function (ELF)
   LORBIT       =     11    0 simple, 1 ext, 2 COOP (PROOUT), +10 PAW based schemes


 Dipole corrections
   LMONO  =      F    monopole corrections only (constant potential shift)
   LDIPOL =      F    correct potential (dipole corrections)
   IDIPOL =      0    1-x, 2-y, 3-z, 4-all directions 
   EPSILON=  1.0000000 bulk dielectric constant

 Exchange correlation treatment:
   GGA     =    --    GGA type
   LEXCH   =     8    internal setting for exchange type
   VOSKOWN=      0    Vosko Wilk Nusair interpolation
   LHFCALC =     F    Hartree Fock is set to
   LHFONE  =     F    Hartree Fock one center treatment
   AEXX    =    0.0000 exact exchange contribution

 Linear response parameters
   LEPSILON=     F    determine dielectric tensor
   LRPA    =     F    only Hartree local field effects (RPA)
   LNABLA  =     F    use nabla operator in PAW spheres
   LVEL    =     F    velocity operator in full k-point grid
   LINTERFAST=   F  fast interpolation
   KINTER  =     0    interpolate to denser k-point grid
   CSHIFT  =0.1000    complex shift for real part using Kramers Kronig
   OMEGAMAX=  -1.0    maximum frequency
   DEG_THRESHOLD= 0.2000000E-02 threshold for treating states as degnerate
   RTIME   =   -0.100 relaxation time in fs
  (WPLASMAI=    0.000 imaginary part of plasma frequency in eV, 0.658/RTIME)
   DFIELD  = 0.0000000 0.0000000 0.0000000 field for delta impulse in time

 Orbital magnetization related:
   ORBITALMAG=     F  switch on orbital magnetization
   LCHIMAG   =     F  perturbation theory with respect to B field
   DQ        =  0.001000  dq finite difference perturbation B field
   LLRAUG    =     F  two centre corrections for induced B field



--------------------------------------------------------------------------------------------------------


 conjugate gradient relaxation of ions
 charge density and potential will be updated during run
 spin polarized calculation
 RMM-DIIS sequential band-by-band and
  variant of blocked Davidson during initial phase
 perform sub-space diagonalisation
    before iterative eigenvector-optimisation
 modified Broyden-mixing scheme, WC =      100.0
 initial mixing is a Kerker type mixing with AMIX =  0.4000 and BMIX =      1.0000
 Hartree-type preconditioning will be used
 using additional bands           20
 real space projection scheme for non local part
 use partial core corrections
 calculate Harris-corrections to forces   (improved forces if not selfconsistent)
 use gradient corrections 
 use of overlap-Matrix (Vanderbilt PP)
 Gauss-broadening in eV      SIGMA  =   0.02


--------------------------------------------------------------------------------------------------------


  energy-cutoff  :      550.00
  volume of cell :      212.65
      direct lattice vectors                 reciprocal lattice vectors
     5.968836799  0.000000000  0.000000000     0.167536831  0.000000000  0.000000000
     0.000000000  5.968836799  0.000000000     0.000000000  0.167536831  0.000000000
     0.000000000  0.000000000  5.968836799     0.000000000  0.000000000  0.167536831

  length of vectors
     5.968836799  5.968836799  5.968836799     0.167536831  0.167536831  0.167536831



 k-points in units of 2pi/SCALE and weight: k-points                                
   0.00000000  0.00000000  0.00000000       0.003
   0.13785888  0.00000000  0.00000000       0.006
   0.27571776  0.00000000  0.00000000       0.006
   0.41357663  0.00000000  0.00000000       0.006
   0.00000000  0.13785888  0.00000000       0.012
   0.13785888  0.13785888  0.00000000       0.023
   0.27571776  0.13785888  0.00000000       0.023
   0.41357663  0.13785888  0.00000000       0.023
   0.00000000  0.27571776  0.00000000       0.012
   0.13785888  0.27571776  0.00000000       0.023
   0.27571776  0.27571776  0.00000000       0.023
   0.41357663  0.27571776  0.00000000       0.023
   0.00000000  0.41357663  0.00000000       0.012
   0.13785888  0.41357663  0.00000000       0.023
   0.27571776  0.41357663  0.00000000       0.023
   0.41357663  0.41357663  0.00000000       0.023
   0.00000000  0.13785888  0.13785888       0.012
   0.13785888  0.13785888  0.13785888       0.023
   0.27571776  0.13785888  0.13785888       0.023
   0.41357663  0.13785888  0.13785888       0.023
   0.00000000  0.27571776  0.13785888       0.023
   0.13785888  0.27571776  0.13785888       0.047
   0.27571776  0.27571776  0.13785888       0.047
   0.41357663  0.27571776  0.13785888       0.047
   0.00000000  0.41357663  0.13785888       0.023
   0.13785888  0.41357663  0.13785888       0.047
   0.27571776  0.41357663  0.13785888       0.047
   0.41357663  0.41357663  0.13785888       0.047
   0.00000000  0.27571776  0.27571776       0.012
   0.13785888  0.27571776  0.27571776       0.023
   0.27571776  0.27571776  0.27571776       0.023
   0.41357663  0.27571776  0.27571776       0.023
   0.00000000  0.41357663  0.27571776       0.023
   0.13785888  0.41357663  0.27571776       0.047
   0.27571776  0.41357663  0.27571776       0.047
   0.41357663  0.41357663  0.27571776       0.047
   0.00000000  0.41357663  0.41357663       0.012
   0.13785888  0.41357663  0.41357663       0.023
   0.27571776  0.41357663  0.41357663       0.023
   0.41357663  0.41357663  0.41357663       0.023

 k-points in reciprocal lattice and weights: k-points                                
   0.00000000  0.00000000  0.00000000       0.003
   0.14285714  0.00000000  0.00000000       0.006
   0.28571429  0.00000000  0.00000000       0.006
   0.42857143  0.00000000  0.00000000       0.006
   0.00000000  0.14285714  0.00000000       0.012
   0.14285714  0.14285714  0.00000000       0.023
   0.28571429  0.14285714  0.00000000       0.023
   0.42857143  0.14285714  0.00000000       0.023
   0.00000000  0.28571429  0.00000000       0.012
   0.14285714  0.28571429  0.00000000       0.023
   0.28571429  0.28571429  0.00000000       0.023
   0.42857143  0.28571429  0.00000000       0.023
   0.00000000  0.42857143  0.00000000       0.012
   0.14285714  0.42857143  0.00000000       0.023
   0.28571429  0.42857143  0.00000000       0.023
   0.42857143  0.42857143  0.00000000       0.023
   0.00000000  0.14285714  0.14285714       0.012
   0.14285714  0.14285714  0.14285714       0.023
   0.28571429  0.14285714  0.14285714       0.023
   0.42857143  0.14285714  0.14285714       0.023
   0.00000000  0.28571429  0.14285714       0.023
   0.14285714  0.28571429  0.14285714       0.047
   0.28571429  0.28571429  0.14285714       0.047
   0.42857143  0.28571429  0.14285714       0.047
   0.00000000  0.42857143  0.14285714       0.023
   0.14285714  0.42857143  0.14285714       0.047
   0.28571429  0.42857143  0.14285714       0.047
   0.42857143  0.42857143  0.14285714       0.047
   0.00000000  0.28571429  0.28571429       0.012
   0.14285714  0.28571429  0.28571429       0.023
   0.28571429  0.28571429  0.28571429       0.023
   0.42857143  0.28571429  0.28571429       0.023
   0.00000000  0.42857143  0.28571429       0.023
   0.14285714  0.42857143  0.28571429       0.047
   0.28571429  0.42857143  0.28571429       0.047
   0.42857143  0.42857143  0.28571429       0.047
   0.00000000  0.42857143  0.42857143       0.012
   0.14285714  0.42857143  0.42857143       0.023
   0.28571429  0.42857143  0.42857143       0.023
   0.42857143  0.42857143  0.42857143       0.023

 position of ions in fractional coordinates (direct lattice) 
   0.24638197  0.25049671  0.25049671
   0.75361803  0.25049671  0.25049671
   0.24638197  0.74950329  0.25049671
   0.75361803  0.74950329  0.25049671
   0.24638197  0.25049671  0.74950329
   0.75361803  0.25049671  0.74950329
   0.24638197  0.74950329  0.74950329
   0.75361803  0.74950329  0.74950329
   0.50000000  0.00000000  0.00000000
   0.50000000  0.50000000  0.00000000
   0.00000000  0.50000000  0.00000000
   0.00000000  0.00000000  0.50000000
   0.50000000  0.00000000  0.50000000
   0.00000000  0.50000000  0.50000000
   0.00000000  0.00000000  0.00000000
   0.50000000  0.50000000  0.50000000

 position of ions in cartesian coordinates  (Angst):
   1.47061379  1.49517397  1.49517397
   4.49822300  1.49517397  1.49517397
   1.47061379  4.47366283  1.49517397
   4.49822300  4.47366283  1.49517397
   1.47061379  1.49517397  4.47366283
   4.49822300  1.49517397  4.47366283
   1.47061379  4.47366283  4.47366283
   4.49822300  4.47366283  4.47366283
   2.98441840  0.00000000  0.00000000
   2.98441840  2.98441840  0.00000000
   0.00000000  2.98441840  0.00000000
   0.00000000  0.00000000  2.98441840
   2.98441840  0.00000000  2.98441840
   0.00000000  2.98441840  2.98441840
   0.00000000  0.00000000  0.00000000
   2.98441840  2.98441840  2.98441840



--------------------------------------------------------------------------------------------------------


 k-point  1 :   0.0000 0.0000 0.0000  plane waves:    6235
 k-point  2 :   0.1429 0.0000 0.0000  plane waves:    6227
 k-point  3 :   0.2857 0.0000 0.0000  plane waves:    6243
 k-point  4 :   0.4286 0.0000 0.0000  plane waves:    6238
 k-point  5 :   0.0000 0.1429 0.0000  plane waves:    6227
 k-point  6 :   0.1429 0.1429 0.0000  plane waves:    6236
 k-point  7 :   0.2857 0.1429 0.0000  plane waves:    6232
 k-point  8 :   0.4286 0.1429 0.0000  plane waves:    6230
 k-point  9 :   0.0000 0.2857 0.0000  plane waves:    6243
 k-point 10 :   0.1429 0.2857 0.0000  plane waves:    6232
 k-point 11 :   0.2857 0.2857 0.0000  plane waves:    6234
 k-point 12 :   0.4286 0.2857 0.0000  plane waves:    6217
 k-point 13 :   0.0000 0.4286 0.0000  plane waves:    6238
 k-point 14 :   0.1429 0.4286 0.0000  plane waves:    6230
 k-point 15 :   0.2857 0.4286 0.0000  plane waves:    6217
 k-point 16 :   0.4286 0.4286 0.0000  plane waves:    6234
 k-point 17 :   0.0000 0.1429 0.1429  plane waves:    6236
 k-point 18 :   0.1429 0.1429 0.1429  plane waves:    6241
 k-point 19 :   0.2857 0.1429 0.1429  plane waves:    6228
 k-point 20 :   0.4286 0.1429 0.1429  plane waves:    6245
 k-point 21 :   0.0000 0.2857 0.1429  plane waves:    6232
 k-point 22 :   0.1429 0.2857 0.1429  plane waves:    6228
 k-point 23 :   0.2857 0.2857 0.1429  plane waves:    6222
 k-point 24 :   0.4286 0.2857 0.1429  plane waves:    6227
 k-point 25 :   0.0000 0.4286 0.1429  plane waves:    6230
 k-point 26 :   0.1429 0.4286 0.1429  plane waves:    6245
 k-point 27 :   0.2857 0.4286 0.1429  plane waves:    6227
 k-point 28 :   0.4286 0.4286 0.1429  plane waves:    6227
 k-point 29 :   0.0000 0.2857 0.2857  plane waves:    6234
 k-point 30 :   0.1429 0.2857 0.2857  plane waves:    6222
 k-point 31 :   0.2857 0.2857 0.2857  plane waves:    6223
 k-point 32 :   0.4286 0.2857 0.2857  plane waves:    6226
 k-point 33 :   0.0000 0.4286 0.2857  plane waves:    6217
 k-point 34 :   0.1429 0.4286 0.2857  plane waves:    6227
 k-point 35 :   0.2857 0.4286 0.2857  plane waves:    6226
 k-point 36 :   0.4286 0.4286 0.2857  plane waves:    6208
 k-point 37 :   0.0000 0.4286 0.4286  plane waves:    6234
 k-point 38 :   0.1429 0.4286 0.4286  plane waves:    6227
 k-point 39 :   0.2857 0.4286 0.4286  plane waves:    6208
 k-point 40 :   0.4286 0.4286 0.4286  plane waves:    6179

 maximum and minimum number of plane-waves per node :      6245     6179

 maximum number of plane-waves:      6245
 maximum index in each direction: 
   IXMAX=   11   IYMAX=   11   IZMAX=   11
   IXMIN=  -11   IYMIN=  -11   IZMIN=  -11


 serial   3D FFT for wavefunctions
 parallel 3D FFT for charge:
    minimum data exchange during FFTs selected (reduces bandwidth)


 total amount of memory used by VASP MPI-rank0   103720. kBytes
=======================================================================

   base      :      30000. kBytes
   nonlr-proj:       6783. kBytes
   fftplans  :       1269. kBytes
   grid      :       6573. kBytes
   one-center:        497. kBytes
   wavefun   :      58598. kBytes

     INWAV:  cpu time    0.0000: real time    0.0000
 Broyden mixing: mesh for mixing (old mesh)
   NGX = 23   NGY = 23   NGZ = 23
  (NGX  = 72   NGY  = 72   NGZ  = 72)
  gives a total of  12167 points

 initial charge density was supplied:
 charge density of overlapping atoms calculated
 number of electron     128.0000000 magnetization      16.8000000
 keeping initial charge density in first step


--------------------------------------------------------------------------------------------------------


 Maximum index for non-local projection operator         3887
 Maximum index for augmentation-charges         2111 (set IRDMAX)


--------------------------------------------------------------------------------------------------------


 First call to EWALD:  gamma=   0.297
 Maximum number of real-space cells 3x 3x 3
 Maximum number of reciprocal cells 3x 3x 3

    FEWALD:  cpu time    0.0021: real time    0.0021


--------------------------------------- Iteration      1(   1)  ---------------------------------------


    POTLOK:  cpu time    0.0998: real time    0.1014
    SETDIJ:  cpu time    0.0357: real time    0.0357
     EDDAV:  cpu time   23.3617: real time   24.6648
       DOS:  cpu time    0.0037: real time    0.0038
    --------------------------------------------
      LOOP:  cpu time   23.5008: real time   24.8057

 eigenvalue-minimisations  : 13440
 total energy-change (2. order) : 0.1066605E+04  (-0.5442065E+04)
 number of electron     128.0000000 magnetization      16.8000000
 augmentation part      128.0000000 magnetization      16.8000000

 Free energy of the ion-electron system (eV)
  ---------------------------------------------------
  alpha Z        PSCENC =       529.14932153
  Ewald energy   TEWEN  =     -9388.54324822
  -Hartree energ DENC   =     -3032.25137714
  -exchange      EXHF   =         0.00000000
  -V(xc)+E(xc)   XCENC  =        78.01466780
  PAW double counting   =     10320.96726947   -10647.99417394
  entropy T*S    EENTRO =        -0.00119946
  eigenvalues    EBANDS =      1977.80163617
  atomic energy  EATOM  =     11229.46195210
  Solvation  Ediel_sol  =         0.00000000
  ---------------------------------------------------
  free energy    TOTEN  =      1066.60484830 eV

  energy without entropy =     1066.60604776  energy(sigma->0) =     1066.60544803


--------------------------------------------------------------------------------------------------------




--------------------------------------- Iteration      1(   2)  ---------------------------------------


     EDDAV:  cpu time   23.6169: real time   23.6593
       DOS:  cpu time    0.0035: real time    0.0036
    --------------------------------------------
      LOOP:  cpu time   23.6204: real time   23.6629

 eigenvalue-minimisations  : 13440
 total energy-change (2. order) :-0.1065136E+04  (-0.1032007E+04)
 number of electron     128.0000000 magnetization      16.8000000
 augmentation part      128.0000000 magnetization      16.8000000

 Free energy of the ion-electron system (eV)
  ---------------------------------------------------
  alpha Z        PSCENC =       529.14932153
  Ewald energy   TEWEN  =     -9388.54324822
  -Hartree energ DENC   =     -3032.25137714
  -exchange      EXHF   =         0.00000000
  -V(xc)+E(xc)   XCENC  =        78.01466780
  PAW double counting   =     10320.96726947   -10647.99417394
  entropy T*S    EENTRO =        -0.00309635
  eigenvalues    EBANDS =       912.66795595
  atomic energy  EATOM  =     11229.46195210
  Solvation  Ediel_sol  =         0.00000000
  ---------------------------------------------------
  free energy    TOTEN  =         1.46927120 eV

  energy without entropy =        1.47236755  energy(sigma->0) =        1.47081937


--------------------------------------------------------------------------------------------------------




--------------------------------------- Iteration      1(   3)  ---------------------------------------


     EDDAV:  cpu time   25.8991: real time   25.9805
       DOS:  cpu time    0.0037: real time    0.0037
    --------------------------------------------
      LOOP:  cpu time   25.9029: real time   25.9842

 eigenvalue-minimisations  : 15228
 total energy-change (2. order) :-0.1109917E+03  (-0.9844768E+02)
 number of electron     128.0000000 magnetization      16.8000000
 augmentation part      128.0000000 magnetization      16.8000000

 Free energy of the ion-electron system (eV)
  ---------------------------------------------------
  alpha Z        PSCENC =       529.14932153
  Ewald energy   TEWEN  =     -9388.54324822
  -Hartree energ DENC   =     -3032.25137714
  -exchange      EXHF   =         0.00000000
  -V(xc)+E(xc)   XCENC  =        78.01466780
  PAW double counting   =     10320.96726947   -10647.99417394
  entropy T*S    EENTRO =        -0.00328453
  eigenvalues    EBANDS =       801.67647536
  atomic energy  EATOM  =     11229.46195210
  Solvation  Ediel_sol  =         0.00000000
  ---------------------------------------------------
  free energy    TOTEN  =      -109.52239758 eV

  energy without entropy =     -109.51911305  energy(sigma->0) =     -109.52075531


--------------------------------------------------------------------------------------------------------




--------------------------------------- Iteration      1(   4)  ---------------------------------------


     EDDAV:  cpu time   32.1535: real time   32.1853
       DOS:  cpu time    0.0037: real time    0.0037
    --------------------------------------------
      LOOP:  cpu time   32.1572: real time   32.1890

 eigenvalue-minimisations  : 19836
 total energy-change (2. order) :-0.6637846E+01  (-0.6233904E+01)
 number of electron     128.0000000 magnetization      16.8000000
 augmentation part      128.0000000 magnetization      16.8000000

 Free energy of the ion-electron system (eV)
  ---------------------------------------------------
  alpha Z        PSCENC =       529.14932153
  Ewald energy   TEWEN  =     -9388.54324822
  -Hartree energ DENC   =     -3032.25137714
  -exchange      EXHF   =         0.00000000
  -V(xc)+E(xc)   XCENC  =        78.01466780
  PAW double counting   =     10320.96726947   -10647.99417394
  entropy T*S    EENTRO =        -0.00352474
  eigenvalues    EBANDS =       795.03886969
  atomic energy  EATOM  =     11229.46195210
  Solvation  Ediel_sol  =         0.00000000
  ---------------------------------------------------
  free energy    TOTEN  =      -116.16024346 eV

  energy without entropy =     -116.15671872  energy(sigma->0) =     -116.15848109


--------------------------------------------------------------------------------------------------------




--------------------------------------- Iteration      1(   5)  ---------------------------------------


     EDDAV:  cpu time   31.5256: real time   31.5549
       DOS:  cpu time    0.0036: real time    0.0037
    CHARGE:  cpu time    0.6849: real time    0.6852
    MIXING:  cpu time    0.0016: real time    0.0016
    --------------------------------------------
      LOOP:  cpu time   32.2157: real time   32.2454

 eigenvalue-minimisations  : 19380
 total energy-change (2. order) :-0.2307490E+00  (-0.2295207E+00)
 number of electron     127.9999798 magnetization      14.5494906
 augmentation part       60.5621218 magnetization       9.2022528

 Broyden mixing:
  rms(total) = 0.34409E+01    rms(broyden)= 0.34408E+01
  rms(prec ) = 0.54079E+01
  weight for this iteration     100.00

 Free energy of the ion-electron system (eV)
  ---------------------------------------------------
  alpha Z        PSCENC =       529.14932153
  Ewald energy   TEWEN  =     -9388.54324822
  -Hartree energ DENC   =     -3032.25137714
  -exchange      EXHF   =         0.00000000
  -V(xc)+E(xc)   XCENC  =        78.01466780
  PAW double counting   =     10320.96726947   -10647.99417394
  entropy T*S    EENTRO =        -0.00324531
  eigenvalues    EBANDS =       794.80784130
  atomic energy  EATOM  =     11229.46195210
  Solvation  Ediel_sol  =         0.00000000
  ---------------------------------------------------
  free energy    TOTEN  =      -116.39099241 eV

  energy without entropy =     -116.38774710  energy(sigma->0) =     -116.38936976


--------------------------------------------------------------------------------------------------------




--------------------------------------- Iteration      1(   6)  ---------------------------------------


    POTLOK:  cpu time    0.0993: real time    0.0995
    SETDIJ:  cpu time    0.0361: real time    0.0361
    EDDIAG:  cpu time    3.3162: real time    3.3195
  RMM-DIIS:  cpu time   10.5635: real time   10.5744
    ORTHCH:  cpu time    0.6455: real time    0.6461
       DOS:  cpu time    0.0039: real time    0.0039
    CHARGE:  cpu time    0.6611: real time    0.6616
    MIXING:  cpu time    0.0016: real time    0.0016
    --------------------------------------------
      LOOP:  cpu time   15.3273: real time   15.3427

 eigenvalue-minimisations  : 13440
 total energy-change (2. order) : 0.2768423E+01  (-0.1881690E+02)
 number of electron     127.9999950 magnetization      14.3997756
 augmentation part       69.3837877 magnetization      11.3871093

 Broyden mixing:
  rms(total) = 0.56204E+01    rms(broyden)= 0.56202E+01
  rms(prec ) = 0.82046E+01
  weight for this iteration     100.00

 eigenvalues of (default mixing * dielectric matrix)
  average eigenvalue GAMMA=   0.1750
  0.1750

 Free energy of the ion-electron system (eV)
  ---------------------------------------------------
  alpha Z        PSCENC =       529.14932153
  Ewald energy   TEWEN  =     -9388.54324822
  -Hartree energ DENC   =     -2799.97659964
  -exchange      EXHF   =         0.00000000
  -V(xc)+E(xc)   XCENC  =        66.14913949
  PAW double counting   =     11113.65389452   -11407.28343901
  entropy T*S    EENTRO =        -0.00571165
  eigenvalues    EBANDS =       543.77212102
  atomic energy  EATOM  =     11229.46195210
  Solvation  Ediel_sol  =         0.00000000
  ---------------------------------------------------
  free energy    TOTEN  =      -113.62256988 eV

  energy without entropy =     -113.61685823  energy(sigma->0) =     -113.61971405


--------------------------------------------------------------------------------------------------------




--------------------------------------- Iteration      1(   7)  ---------------------------------------


    POTLOK:  cpu time    0.0994: real time    0.0995
    SETDIJ:  cpu time    0.0361: real time    0.0361
    EDDIAG:  cpu time    3.3237: real time    3.3280
  RMM-DIIS:  cpu time   10.5820: real time   10.5932
    ORTHCH:  cpu time    0.6397: real time    0.6401
       DOS:  cpu time    0.0038: real time    0.0038
    CHARGE:  cpu time    0.6703: real time    0.6707
    MIXING:  cpu time    0.0016: real time    0.0016
    --------------------------------------------
      LOOP:  cpu time   15.3566: real time   15.3730

 eigenvalue-minimisations  : 13443
 total energy-change (2. order) : 0.2169461E+01  (-0.4167105E+01)
 number of electron     127.9999756 magnetization      14.0107465
 augmentation part       70.7600034 magnetization       9.4684685

 Broyden mixing:
  rms(total) = 0.35714E+01    rms(broyden)= 0.35710E+01
  rms(prec ) = 0.60191E+01
  weight for this iteration     100.00

 eigenvalues of (default mixing * dielectric matrix)
  average eigenvalue GAMMA=   0.4023
  0.4908  0.3138

 Free energy of the ion-electron system (eV)
  ---------------------------------------------------
  alpha Z        PSCENC =       529.14932153
  Ewald energy   TEWEN  =     -9388.54324822
  -Hartree energ DENC   =     -2771.51807791
  -exchange      EXHF   =         0.00000000
  -V(xc)+E(xc)   XCENC  =        65.00741870
  PAW double counting   =     11320.47396587   -11614.05822612
  entropy T*S    EENTRO =        -0.00292599
  eigenvalues    EBANDS =       518.57671165
  atomic energy  EATOM  =     11229.46195210
  Solvation  Ediel_sol  =         0.00000000
  ---------------------------------------------------
  free energy    TOTEN  =      -111.45310839 eV

  energy without entropy =     -111.45018239  energy(sigma->0) =     -111.45164539


--------------------------------------------------------------------------------------------------------




--------------------------------------- Iteration      1(   8)  ---------------------------------------


    POTLOK:  cpu time    0.1042: real time    0.1048
    SETDIJ:  cpu time    0.0379: real time    0.0380
    EDDIAG:  cpu time    3.3839: real time    3.3868
  RMM-DIIS:  cpu time   10.5650: real time   10.5744
    ORTHCH:  cpu time    0.6463: real time    0.6468
       DOS:  cpu time    0.0038: real time    0.0038
    CHARGE:  cpu time    0.6824: real time    0.6829
    MIXING:  cpu time    0.0017: real time    0.0017
    --------------------------------------------
      LOOP:  cpu time   15.4252: real time   15.4393

 eigenvalue-minimisations  : 13440
 total energy-change (2. order) : 0.8427919E+01  (-0.2144649E+01)
 number of electron     127.9999854 magnetization      15.2615971
 augmentation part       67.8127774 magnetization      11.0685329

 Broyden mixing:
  rms(total) = 0.14876E+01    rms(broyden)= 0.14874E+01
  rms(prec ) = 0.22414E+01
  weight for this iteration     100.00

 eigenvalues of (default mixing * dielectric matrix)
  average eigenvalue GAMMA=   0.4699
  0.6121  0.6121  0.1856

 Free energy of the ion-electron system (eV)
  ---------------------------------------------------
  alpha Z        PSCENC =       529.14932153
  Ewald energy   TEWEN  =     -9388.54324822
  -Hartree energ DENC   =     -2840.51324559
  -exchange      EXHF   =         0.00000000
  -V(xc)+E(xc)   XCENC  =        69.80337182
  PAW double counting   =     11786.67950612   -12111.48200084
  entropy T*S    EENTRO =        -0.00379827
  eigenvalues    EBANDS =       622.42295178
  atomic energy  EATOM  =     11229.46195210
  Solvation  Ediel_sol  =         0.00000000
  ---------------------------------------------------
  free energy    TOTEN  =      -103.02518958 eV

  energy without entropy =     -103.02139131  energy(sigma->0) =     -103.02329044


--------------------------------------------------------------------------------------------------------




--------------------------------------- Iteration      1(   9)  ---------------------------------------


    POTLOK:  cpu time    0.0987: real time    0.0988
    SETDIJ:  cpu time    0.0364: real time    0.0364
    EDDIAG:  cpu time    3.3472: real time    3.3505
  RMM-DIIS:  cpu time   10.7123: real time   10.7218
    ORTHCH:  cpu time    0.6377: real time    0.6382
       DOS:  cpu time    0.0037: real time    0.0037
    CHARGE:  cpu time    0.6958: real time    0.6963
    MIXING:  cpu time    0.0019: real time    0.0019
    --------------------------------------------
      LOOP:  cpu time   15.5337: real time   15.5476

 eigenvalue-minimisations  : 13676
 total energy-change (2. order) :-0.2609847E-01  (-0.2631441E+00)
 number of electron     127.9999850 magnetization      16.5427982
 augmentation part       67.3606691 magnetization      11.9206538

 Broyden mixing:
  rms(total) = 0.10591E+01    rms(broyden)= 0.10590E+01
  rms(prec ) = 0.15316E+01
  weight for this iteration     100.00

 eigenvalues of (default mixing * dielectric matrix)
  average eigenvalue GAMMA=   0.5356
  0.7602  0.7602  0.1942  0.4277

 Free energy of the ion-electron system (eV)
  ---------------------------------------------------
  alpha Z        PSCENC =       529.14932153
  Ewald energy   TEWEN  =     -9388.54324822
  -Hartree energ DENC   =     -2843.20064234
  -exchange      EXHF   =         0.00000000
  -V(xc)+E(xc)   XCENC  =        72.72403935
  PAW double counting   =     12081.79014082   -12414.50649676
  entropy T*S    EENTRO =        -0.00435028
  eigenvalues    EBANDS =       630.07799574
  atomic energy  EATOM  =     11229.46195210
  Solvation  Ediel_sol  =         0.00000000
  ---------------------------------------------------
  free energy    TOTEN  =      -103.05128805 eV

  energy without entropy =     -103.04693777  energy(sigma->0) =     -103.04911291


--------------------------------------------------------------------------------------------------------




--------------------------------------- Iteration      1(  10)  ---------------------------------------


    POTLOK:  cpu time    0.0985: real time    0.0985
    SETDIJ:  cpu time    0.0363: real time    0.0363
    EDDIAG:  cpu time    3.3613: real time    3.3642
  RMM-DIIS:  cpu time   10.5209: real time   10.5300
    ORTHCH:  cpu time    0.6423: real time    0.6429
       DOS:  cpu time    0.0038: real time    0.0038
    CHARGE:  cpu time    0.7008: real time    0.7012
    MIXING:  cpu time    0.0020: real time    0.0020
    --------------------------------------------
      LOOP:  cpu time   15.3658: real time   15.3789

 eigenvalue-minimisations  : 13462
 total energy-change (2. order) : 0.1126432E+00  (-0.1305814E+00)
 number of electron     127.9999835 magnetization      18.1603361
 augmentation part       67.9183930 magnetization      13.6854144

 Broyden mixing:
  rms(total) = 0.60120E+00    rms(broyden)= 0.60117E+00
  rms(prec ) = 0.86817E+00
  weight for this iteration     100.00

 eigenvalues of (default mixing * dielectric matrix)
  average eigenvalue GAMMA=   0.6926
  1.5790  0.8681  0.5592  0.1945  0.2624

 Free energy of the ion-electron system (eV)
  ---------------------------------------------------
  alpha Z        PSCENC =       529.14932153
  Ewald energy   TEWEN  =     -9388.54324822
  -Hartree energ DENC   =     -2832.18196595
  -exchange      EXHF   =         0.00000000
  -V(xc)+E(xc)   XCENC  =        74.21928510
  PAW double counting   =     12312.71340745   -12647.80586817
  entropy T*S    EENTRO =        -0.00332439
  eigenvalues    EBANDS =       620.05179569
  atomic energy  EATOM  =     11229.46195210
  Solvation  Ediel_sol  =         0.00000000
  ---------------------------------------------------
  free energy    TOTEN  =      -102.93864487 eV

  energy without entropy =     -102.93532048  energy(sigma->0) =     -102.93698268


--------------------------------------------------------------------------------------------------------




--------------------------------------- Iteration      1(  11)  ---------------------------------------


    POTLOK:  cpu time    0.0987: real time    0.0988
    SETDIJ:  cpu time    0.0362: real time    0.0363
    EDDIAG:  cpu time    3.3656: real time    3.3696
  RMM-DIIS:  cpu time   10.9047: real time   10.9143
    ORTHCH:  cpu time    0.6389: real time    0.6394
       DOS:  cpu time    0.0038: real time    0.0038
    CHARGE:  cpu time    0.7074: real time    0.7079
    MIXING:  cpu time    0.0020: real time    0.0020
    --------------------------------------------
      LOOP:  cpu time   15.7573: real time   15.7720

 eigenvalue-minimisations  : 13880
 total energy-change (2. order) : 0.3075751E-01  (-0.4883584E-01)
 number of electron     127.9999842 magnetization      18.3985744
 augmentation part       67.7389853 magnetization      13.5834672

 Broyden mixing:
  rms(total) = 0.36681E+00    rms(broyden)= 0.36678E+00
  rms(prec ) = 0.50118E+00
  weight for this iteration     100.00

 eigenvalues of (default mixing * dielectric matrix)
  average eigenvalue GAMMA=   0.6865
  1.8253  0.6339  0.6051  0.6051  0.1954  0.2540

 Free energy of the ion-electron system (eV)
  ---------------------------------------------------
  alpha Z        PSCENC =       529.14932153
  Ewald energy   TEWEN  =     -9388.54324822
  -Hartree energ DENC   =     -2830.45598249
  -exchange      EXHF   =         0.00000000
  -V(xc)+E(xc)   XCENC  =        76.92856118
  PAW double counting   =     12714.43270650   -13056.84930405
  entropy T*S    EENTRO =        -0.00248866
  eigenvalues    EBANDS =       622.97059475
  atomic energy  EATOM  =     11229.46195210
  Solvation  Ediel_sol  =         0.00000000
  ---------------------------------------------------
  free energy    TOTEN  =      -102.90788737 eV

  energy without entropy =     -102.90539870  energy(sigma->0) =     -102.90664304


--------------------------------------------------------------------------------------------------------




--------------------------------------- Iteration      1(  12)  ---------------------------------------


    POTLOK:  cpu time    0.1010: real time    0.1018
    SETDIJ:  cpu time    0.0362: real time    0.0362
    EDDIAG:  cpu time    3.3765: real time    3.3795
  RMM-DIIS:  cpu time   11.0743: real time   11.0840
    ORTHCH:  cpu time    0.6412: real time    0.6417
       DOS:  cpu time    0.0037: real time    0.0037
    CHARGE:  cpu time    0.7042: real time    0.7047
    MIXING:  cpu time    0.0022: real time    0.0022
    --------------------------------------------
      LOOP:  cpu time   15.9394: real time   15.9538

 eigenvalue-minimisations  : 13917
 total energy-change (2. order) : 0.1815847E-01  (-0.1466938E-01)
 number of electron     127.9999843 magnetization      18.3767403
 augmentation part       67.6730303 magnetization      13.6517595

 Broyden mixing:
  rms(total) = 0.23950E+00    rms(broyden)= 0.23950E+00
  rms(prec ) = 0.28877E+00
  weight for this iteration     100.00

 eigenvalues of (default mixing * dielectric matrix)
  average eigenvalue GAMMA=   0.6879
  1.9765  0.7540  0.7540  0.5352  0.3525  0.1953  0.2480

 Free energy of the ion-electron system (eV)
  ---------------------------------------------------
  alpha Z        PSCENC =       529.14932153
  Ewald energy   TEWEN  =     -9388.54324822
  -Hartree energ DENC   =     -2829.87642535
  -exchange      EXHF   =         0.00000000
  -V(xc)+E(xc)   XCENC  =        76.85138714
  PAW double counting   =     12809.10964661   -13152.93345355
  entropy T*S    EENTRO =        -0.00264205
  eigenvalues    EBANDS =       623.89373291
  atomic energy  EATOM  =     11229.46195210
  Solvation  Ediel_sol  =         0.00000000
  ---------------------------------------------------
  free energy    TOTEN  =      -102.88972889 eV

  energy without entropy =     -102.88708684  energy(sigma->0) =     -102.88840787


--------------------------------------------------------------------------------------------------------




--------------------------------------- Iteration      1(  13)  ---------------------------------------


    POTLOK:  cpu time    0.0988: real time    0.0989
    SETDIJ:  cpu time    0.0361: real time    0.0361
    EDDIAG:  cpu time    3.4282: real time    3.4316
  RMM-DIIS:  cpu time   10.8319: real time   10.8412
    ORTHCH:  cpu time    0.6450: real time    0.6456
       DOS:  cpu time    0.0038: real time    0.0038
    CHARGE:  cpu time    0.6975: real time    0.6980
    MIXING:  cpu time    0.0023: real time    0.0023
    --------------------------------------------
      LOOP:  cpu time   15.7436: real time   15.7575

 eigenvalue-minimisations  : 13680
 total energy-change (2. order) : 0.2869268E-02  (-0.3115886E-02)
 number of electron     127.9999843 magnetization      18.3152104
 augmentation part       67.7045649 magnetization      13.5082134

 Broyden mixing:
  rms(total) = 0.13707E+00    rms(broyden)= 0.13707E+00
  rms(prec ) = 0.15376E+00
  weight for this iteration     100.00

 eigenvalues of (default mixing * dielectric matrix)
  average eigenvalue GAMMA=   0.7609
  2.2117  0.9591  0.9591  0.5971  0.5971  0.1952  0.2494  0.3183

 Free energy of the ion-electron system (eV)
  ---------------------------------------------------
  alpha Z        PSCENC =       529.14932153
  Ewald energy   TEWEN  =     -9388.54324822
  -Hartree energ DENC   =     -2827.99800729
  -exchange      EXHF   =         0.00000000
  -V(xc)+E(xc)   XCENC  =        76.43067252
  PAW double counting   =     12868.83156331   -13213.09270787
  entropy T*S    EENTRO =        -0.00263905
  eigenvalues    EBANDS =       622.87623336
  atomic energy  EATOM  =     11229.46195210
  Solvation  Ediel_sol  =         0.00000000
  ---------------------------------------------------
  free energy    TOTEN  =      -102.88685962 eV

  energy without entropy =     -102.88422057  energy(sigma->0) =     -102.88554010


--------------------------------------------------------------------------------------------------------




--------------------------------------- Iteration      1(  14)  ---------------------------------------


    POTLOK:  cpu time    0.0988: real time    0.0989
    SETDIJ:  cpu time    0.0363: real time    0.0363
    EDDIAG:  cpu time    3.3976: real time    3.4004
  RMM-DIIS:  cpu time   10.6568: real time   10.6671
    ORTHCH:  cpu time    0.6423: real time    0.6433
       DOS:  cpu time    0.0037: real time    0.0037
    CHARGE:  cpu time    0.6974: real time    0.6978
    MIXING:  cpu time    0.0024: real time    0.0024
    --------------------------------------------
      LOOP:  cpu time   15.5352: real time   15.5499

 eigenvalue-minimisations  : 13518
 total energy-change (2. order) :-0.3733025E-04  (-0.2787426E-02)
 number of electron     127.9999841 magnetization      18.2787593
 augmentation part       67.8134528 magnetization      13.4807250

 Broyden mixing:
  rms(total) = 0.80140E-01    rms(broyden)= 0.80134E-01
  rms(prec ) = 0.11553E+00
  weight for this iteration     100.00

 eigenvalues of (default mixing * dielectric matrix)
  average eigenvalue GAMMA=   0.7824
  2.3796  1.1931  0.8482  0.8482  0.5531  0.4457  0.1953  0.2487  0.3299

 Free energy of the ion-electron system (eV)
  ---------------------------------------------------
  alpha Z        PSCENC =       529.14932153
  Ewald energy   TEWEN  =     -9388.54324822
  -Hartree energ DENC   =     -2825.12243674
  -exchange      EXHF   =         0.00000000
  -V(xc)+E(xc)   XCENC  =        76.11281188
  PAW double counting   =     12921.63145617   -13265.97135191
  entropy T*S    EENTRO =        -0.00268000
  eigenvalues    EBANDS =       620.39727825
  atomic energy  EATOM  =     11229.46195210
  Solvation  Ediel_sol  =         0.00000000
  ---------------------------------------------------
  free energy    TOTEN  =      -102.88689695 eV

  energy without entropy =     -102.88421695  energy(sigma->0) =     -102.88555695


--------------------------------------------------------------------------------------------------------




--------------------------------------- Iteration      1(  15)  ---------------------------------------


    POTLOK:  cpu time    0.0992: real time    0.0993
    SETDIJ:  cpu time    0.0362: real time    0.0363
    EDDIAG:  cpu time    3.4239: real time    3.4266
  RMM-DIIS:  cpu time   10.7653: real time   10.7784
    ORTHCH:  cpu time    0.6384: real time    0.6392
       DOS:  cpu time    0.0038: real time    0.0038
    CHARGE:  cpu time    0.6982: real time    0.7001
    MIXING:  cpu time    0.0027: real time    0.0027
    --------------------------------------------
      LOOP:  cpu time   15.6678: real time   15.6863

 eigenvalue-minimisations  : 13638
 total energy-change (2. order) : 0.1821781E-02  (-0.1086365E-02)
 number of electron     127.9999842 magnetization      18.2633808
 augmentation part       67.7888649 magnetization      13.4438315

 Broyden mixing:
  rms(total) = 0.37696E-01    rms(broyden)= 0.37694E-01
  rms(prec ) = 0.48856E-01
  weight for this iteration     100.00

 eigenvalues of (default mixing * dielectric matrix)
  average eigenvalue GAMMA=   0.8224
  2.4509  1.6503  0.8927  0.8927  0.6196  0.6196  0.1953  0.2481  0.3272  0.3272

 Free energy of the ion-electron system (eV)
  ---------------------------------------------------
  alpha Z        PSCENC =       529.14932153
  Ewald energy   TEWEN  =     -9388.54324822
  -Hartree energ DENC   =     -2825.24533232
  -exchange      EXHF   =         0.00000000
  -V(xc)+E(xc)   XCENC  =        76.12313290
  PAW double counting   =     12940.20949246   -13284.81075412
  entropy T*S    EENTRO =        -0.00279546
  eigenvalues    EBANDS =       620.77315595
  atomic energy  EATOM  =     11229.46195210
  Solvation  Ediel_sol  =         0.00000000
  ---------------------------------------------------
  free energy    TOTEN  =      -102.88507517 eV

  energy without entropy =     -102.88227972  energy(sigma->0) =     -102.88367745


--------------------------------------------------------------------------------------------------------




--------------------------------------- Iteration      1(  16)  ---------------------------------------


    POTLOK:  cpu time    0.0990: real time    0.1002
    SETDIJ:  cpu time    0.0363: real time    0.0363
    EDDIAG:  cpu time    3.4135: real time    3.4179
  RMM-DIIS:  cpu time   11.7645: real time   11.7793
    ORTHCH:  cpu time    0.6439: real time    0.6445
       DOS:  cpu time    0.0038: real time    0.0038
    CHARGE:  cpu time    0.7027: real time    0.7035
    MIXING:  cpu time    0.0028: real time    0.0028
    --------------------------------------------
      LOOP:  cpu time   16.6665: real time   16.6883

 eigenvalue-minimisations  : 14568
 total energy-change (2. order) : 0.1521834E-03  (-0.2073175E-03)
 number of electron     127.9999842 magnetization      18.2526884
 augmentation part       67.7902015 magnetization      13.4395757

 Broyden mixing:
  rms(total) = 0.16587E-01    rms(broyden)= 0.16586E-01
  rms(prec ) = 0.23280E-01
  weight for this iteration     100.00

 eigenvalues of (default mixing * dielectric matrix)
  average eigenvalue GAMMA=   0.8852
  2.4271  2.3356  0.9750  0.9750  0.6957  0.6229  0.6229  0.1953  0.2480  0.3198
  0.3198

 Free energy of the ion-electron system (eV)
  ---------------------------------------------------
  alpha Z        PSCENC =       529.14932153
  Ewald energy   TEWEN  =     -9388.54324822
  -Hartree energ DENC   =     -2825.42612879
  -exchange      EXHF   =         0.00000000
  -V(xc)+E(xc)   XCENC  =        76.13007805
  PAW double counting   =     12945.81635252   -13290.41743625
  entropy T*S    EENTRO =        -0.00279407
  eigenvalues    EBANDS =       620.94698014
  atomic energy  EATOM  =     11229.46195210
  Solvation  Ediel_sol  =         0.00000000
  ---------------------------------------------------
  free energy    TOTEN  =      -102.88492299 eV

  energy without entropy =     -102.88212892  energy(sigma->0) =     -102.88352595


--------------------------------------------------------------------------------------------------------




--------------------------------------- Iteration      1(  17)  ---------------------------------------


    POTLOK:  cpu time    0.0988: real time    0.0989
    SETDIJ:  cpu time    0.0363: real time    0.0363
    EDDIAG:  cpu time    3.4274: real time    3.4312
  RMM-DIIS:  cpu time   11.1154: real time   11.1312
    ORTHCH:  cpu time    0.6407: real time    0.6417
       DOS:  cpu time    0.0030: real time    0.0031
    CHARGE:  cpu time    0.7000: real time    0.7007
    MIXING:  cpu time    0.0030: real time    0.0030
    --------------------------------------------
      LOOP:  cpu time   16.0248: real time   16.0461

 eigenvalue-minimisations  : 13834
 total energy-change (2. order) : 0.1212527E-03  (-0.4447763E-04)
 number of electron     127.9999842 magnetization      18.2598603
 augmentation part       67.7827393 magnetization      13.4409285

 Broyden mixing:
  rms(total) = 0.65304E-02    rms(broyden)= 0.65302E-02
  rms(prec ) = 0.84147E-02
  weight for this iteration     100.00

 eigenvalues of (default mixing * dielectric matrix)
  average eigenvalue GAMMA=   0.9011
  2.4508  2.4508  1.0172  1.0172  0.8120  0.6779  0.6779  0.6257  0.1953  0.2480
  0.3270  0.3132

 Free energy of the ion-electron system (eV)
  ---------------------------------------------------
  alpha Z        PSCENC =       529.14932153
  Ewald energy   TEWEN  =     -9388.54324822
  -Hartree energ DENC   =     -2825.80186643
  -exchange      EXHF   =         0.00000000
  -V(xc)+E(xc)   XCENC  =        76.16094382
  PAW double counting   =     12941.90096334   -13286.41755780
  entropy T*S    EENTRO =        -0.00279101
  eigenvalues    EBANDS =       621.20748094
  atomic energy  EATOM  =     11229.46195210
  Solvation  Ediel_sol  =         0.00000000
  ---------------------------------------------------
  free energy    TOTEN  =      -102.88480174 eV

  energy without entropy =     -102.88201073  energy(sigma->0) =     -102.88340623


--------------------------------------------------------------------------------------------------------




--------------------------------------- Iteration      1(  18)  ---------------------------------------


    POTLOK:  cpu time    0.0992: real time    0.0994
    SETDIJ:  cpu time    0.0363: real time    0.0363
    EDDIAG:  cpu time    3.4362: real time    3.4415
  RMM-DIIS:  cpu time   10.7024: real time   10.7214
    ORTHCH:  cpu time    0.6451: real time    0.6458
       DOS:  cpu time    0.0035: real time    0.0035
    CHARGE:  cpu time    0.7024: real time    0.7032
    MIXING:  cpu time    0.0032: real time    0.0032
    --------------------------------------------
      LOOP:  cpu time   15.6283: real time   15.6543

 eigenvalue-minimisations  : 13257
 total energy-change (2. order) : 0.1372607E-04  (-0.1198641E-04)
 number of electron     127.9999842 magnetization      18.2660305
 augmentation part       67.7811448 magnetization      13.4470243

 Broyden mixing:
  rms(total) = 0.21636E-02    rms(broyden)= 0.21635E-02
  rms(prec ) = 0.24442E-02
  weight for this iteration     100.00

 eigenvalues of (default mixing * dielectric matrix)
  average eigenvalue GAMMA=   0.9603
  2.6007  2.6007  1.5301  0.9781  0.9781  0.7129  0.7129  0.6810  0.6062  0.1953
  0.2480  0.3274  0.3128

 Free energy of the ion-electron system (eV)
  ---------------------------------------------------
  alpha Z        PSCENC =       529.14932153
  Ewald energy   TEWEN  =     -9388.54324822
[...]
     79      11.1626      0.00000
     80      11.5595      0.00000
     81      11.6700      0.00000
     82      11.9119      0.00000
     83      12.1325      0.00000
     84      12.5573      0.00000


--------------------------------------------------------------------------------------------------------


 soft charge-density along one line, spin component           1
         0         1         2         3         4         5         6         7         8         9
 total charge-density along one line

 soft charge-density along one line, spin component           2
         0         1         2         3         4         5         6         7         8         9
 total charge-density along one line

 pseudopotential strength for first ion, spin component:           1
 -1.840  -0.006   0.002  -0.006   0.002  -2.467  -0.006   0.002
 -0.006  -1.842   0.020  -0.006  -0.035  -0.006  -2.469   0.019
  0.002   0.020  -1.918  -0.002   0.000   0.002   0.019  -2.541
 -0.006  -0.006  -0.002  -1.840  -0.001  -0.006  -0.006  -0.002
  0.002  -0.035   0.000  -0.001  -1.919   0.002  -0.033   0.000
 -2.467  -0.006   0.002  -0.006   0.002  -3.024  -0.006   0.002
 -0.006  -2.469   0.019  -0.006  -0.033  -0.006  -3.026   0.018
  0.002   0.019  -2.541  -0.002   0.000   0.002   0.018  -3.095
 -0.006  -0.006  -0.002  -2.467  -0.001  -0.006  -0.006  -0.002
  0.002  -0.033   0.000  -0.001  -2.541   0.001  -0.031   0.000
 -0.001  -0.009   0.000  -0.001  -0.000  -0.001  -0.009   0.000
 -0.003  -0.016   0.000  -0.003  -0.001  -0.002  -0.015   0.000
 -0.002   0.002  -0.000  -0.001  -0.000  -0.002   0.002  -0.000
 -0.001   0.002   0.000  -0.002   0.000  -0.001   0.002   0.000
  0.002  -0.001  -0.000   0.002   0.001   0.002  -0.001  -0.000
 -0.002   0.003  -0.000  -0.002  -0.000  -0.002   0.002  -0.000
 -0.002   0.003   0.001  -0.002   0.000  -0.001   0.002   0.001
  0.003  -0.002  -0.000   0.003   0.000   0.003  -0.001  -0.000
 pseudopotential strength for first ion, spin component:           2
 -1.509  -0.002  -0.000   0.003  -0.001  -2.152  -0.003   0.000
 -0.002  -1.518  -0.016  -0.002   0.027  -0.003  -2.160  -0.015
 -0.000  -0.016  -1.428   0.001  -0.003   0.000  -0.015  -2.073
  0.003  -0.002   0.001  -1.509  -0.000   0.003  -0.003   0.001
 -0.001   0.027  -0.003  -0.000  -1.425  -0.001   0.026  -0.003
 -2.152  -0.003   0.000   0.003  -0.001  -2.724  -0.003   0.000
 -0.003  -2.160  -0.015  -0.003   0.026  -0.003  -2.733  -0.015
  0.000  -0.015  -2.073   0.001  -0.003   0.000  -0.015  -2.649
  0.003  -0.003   0.001  -2.152  -0.000   0.003  -0.003   0.000
 -0.001   0.026  -0.003  -0.000  -2.070  -0.001   0.025  -0.003
 -0.002   0.004   0.000  -0.002  -0.001  -0.002   0.004   0.000
 -0.004   0.007   0.001  -0.004  -0.001  -0.003   0.007   0.001
  0.002  -0.002   0.000   0.001   0.001   0.002  -0.002   0.000
  0.001  -0.002  -0.001   0.002  -0.000   0.001  -0.002  -0.001
 -0.002   0.001  -0.001  -0.002   0.001  -0.002   0.001  -0.001
  0.003  -0.003   0.000   0.002   0.001   0.003  -0.003   0.000
  0.002  -0.003  -0.001   0.003  -0.000   0.002  -0.003  -0.001
 -0.003   0.002  -0.001  -0.003   0.001  -0.003   0.002  -0.001
 total augmentation occupancy for first ion, spin component:           1
  2.111   0.081   0.041   0.041   0.006  -0.581  -0.083  -0.036  -0.052  -0.002  -0.103   0.039   0.008   0.004   0.005  -0.000
  0.081   2.056  -0.032   0.081   0.056  -0.083  -0.546   0.033  -0.083  -0.056  -0.075   0.040  -0.004  -0.004   0.003  -0.001
  0.041  -0.032   2.698  -0.025   0.014  -0.036   0.033  -1.012   0.020  -0.008   0.005  -0.001   0.005  -0.001  -0.011   0.000
  0.041   0.081  -0.025   2.111  -0.033  -0.052  -0.083   0.020  -0.581   0.030  -0.103   0.039   0.004   0.008   0.005   0.000
  0.006   0.056   0.014  -0.033   2.682  -0.002  -0.056  -0.008   0.030  -1.003  -0.009   0.001  -0.002  -0.005   0.018   0.000
 -0.581  -0.083  -0.036  -0.052  -0.002   0.853   0.084   0.019   0.060   0.001   0.064  -0.025  -0.010  -0.003  -0.001   0.000
 -0.083  -0.546   0.033  -0.083  -0.056   0.084   0.829  -0.023   0.084   0.040   0.044  -0.027   0.004   0.004  -0.002   0.000
 -0.036   0.033  -1.012   0.020  -0.008   0.019  -0.023   1.063  -0.010   0.003  -0.003   0.000  -0.004   0.002   0.009   0.000
 -0.052  -0.083   0.020  -0.581   0.030   0.060   0.084  -0.010   0.853  -0.016   0.064  -0.025  -0.003  -0.010  -0.001  -0.000
 -0.002  -0.056  -0.008   0.030  -1.003   0.001   0.040   0.003  -0.016   1.060   0.005  -0.001   0.000   0.003  -0.016   0.000
 -0.103  -0.075   0.005  -0.103  -0.009   0.064   0.044  -0.003   0.064   0.005   2.095  -0.280   0.001   0.001  -0.011  -0.000
  0.039   0.040  -0.001   0.039   0.001  -0.025  -0.027   0.000  -0.025  -0.001  -0.280   0.048   0.000   0.000   0.002  -0.000
  0.008  -0.004   0.005   0.004  -0.002  -0.010   0.004  -0.004  -0.003   0.000   0.001   0.000   0.254   0.002   0.001  -0.026
  0.004  -0.004  -0.001   0.008  -0.005  -0.003   0.004   0.002  -0.010   0.003   0.001   0.000   0.002   0.254   0.001  -0.002
  0.005   0.003  -0.011   0.005   0.018  -0.001  -0.002   0.009  -0.001  -0.016  -0.011   0.002   0.001   0.001   0.255  -0.002
 -0.000  -0.001   0.000   0.000   0.000   0.000   0.000   0.000  -0.000   0.000  -0.000  -0.000  -0.026  -0.002  -0.002   0.003
  0.000  -0.001  -0.000  -0.000   0.000  -0.000   0.000  -0.000   0.000  -0.000  -0.000  -0.000  -0.002  -0.026  -0.002   0.001
 -0.001   0.000   0.000  -0.001  -0.001   0.000  -0.000  -0.001   0.000   0.001   0.002  -0.000  -0.002  -0.002  -0.026   0.001
 total augmentation occupancy for first ion, spin component:           2
  0.585  -0.002  -0.016  -0.189  -0.013  -0.353   0.006   0.010   0.174   0.008  -0.002   0.002   0.041   0.042  -0.042  -0.002
 -0.002   0.543  -0.153  -0.002   0.265   0.006  -0.329   0.080   0.006  -0.139   0.084  -0.002  -0.037  -0.037   0.046   0.001
 -0.016  -0.153   0.893   0.019  -0.022   0.010   0.081  -0.424  -0.011   0.015  -0.012  -0.003  -0.010   0.019   0.011   0.000
 -0.189  -0.002   0.019   0.585   0.008   0.174   0.006  -0.012  -0.353  -0.005  -0.002   0.002   0.042   0.041  -0.042  -0.001
 -0.013   0.265  -0.022   0.008   0.919   0.007  -0.140   0.015  -0.005  -0.440   0.021   0.006  -0.017   0.000  -0.019  -0.000
 -0.353   0.006   0.010   0.174   0.007   0.170  -0.007  -0.005  -0.150  -0.004   0.003  -0.001  -0.026  -0.030   0.026   0.003
  0.006  -0.329   0.081   0.006  -0.140  -0.007   0.157  -0.034  -0.007   0.058  -0.053   0.010   0.024   0.024  -0.033  -0.002
  0.010   0.080  -0.424  -0.012   0.015  -0.005  -0.034   0.121   0.006  -0.010   0.008   0.001   0.010  -0.019  -0.010  -0.000
  0.174   0.006  -0.011  -0.353  -0.005  -0.150  -0.007   0.006   0.170   0.003   0.003  -0.001  -0.030  -0.026   0.026   0.002
  0.008  -0.139   0.015  -0.005  -0.440  -0.004   0.058  -0.010   0.003   0.132  -0.013  -0.002   0.016  -0.000   0.018  -0.000
 -0.002   0.084  -0.012  -0.002   0.021   0.003  -0.053   0.008   0.003  -0.013  -0.085   0.019  -0.005  -0.005   0.004  -0.001
  0.002  -0.002  -0.003   0.002   0.006  -0.001   0.010   0.001  -0.001  -0.002   0.019  -0.003  -0.002  -0.002   0.002   0.000
  0.041  -0.037  -0.010   0.042  -0.017  -0.026   0.024   0.010  -0.030   0.016  -0.005  -0.002  -0.003  -0.012   0.001   0.000
  0.042  -0.037   0.019   0.041   0.000  -0.030   0.024  -0.019  -0.026  -0.000  -0.005  -0.002  -0.012  -0.003   0.001   0.002
 -0.042   0.046   0.011  -0.042  -0.019   0.026  -0.033  -0.010   0.026   0.018   0.004   0.002   0.001   0.001  -0.004   0.000
 -0.002   0.001   0.000  -0.001  -0.000   0.003  -0.002  -0.000   0.002  -0.000  -0.001   0.000   0.000   0.002   0.000  -0.000
 -0.001   0.001  -0.000  -0.002  -0.000   0.002  -0.002   0.000   0.003   0.000  -0.001   0.000   0.002   0.000   0.000  -0.000
  0.001  -0.001  -0.000   0.001   0.000  -0.003   0.003   0.000  -0.003  -0.000   0.001  -0.000  -0.000  -0.000   0.000  -0.000


------------------------ aborting loop because EDIFF is reached ----------------------------------------





 total charge     

# of ion       s       p       d       tot
------------------------------------------
    1        0.466   0.424   8.382   9.272
    2        0.464   0.424   8.370   9.258
    3        0.464   0.420   8.375   9.259
    4        0.466   0.420   8.368   9.254
    5        0.466   0.420   8.368   9.254
    6        0.464   0.420   8.375   9.259
    7        0.464   0.424   8.370   9.258
    8        0.466   0.424   8.382   9.272
    9        0.324   0.315   4.914   5.553
   10        0.330   0.317   4.936   5.583
   11        0.325   0.313   4.958   5.596
   12        0.335   0.324   4.917   5.576
   13        0.320   0.309   4.903   5.532
   14        0.335   0.310   4.959   5.604
   15        1.273   1.838   0.357   3.468
   16        1.261   1.798   0.348   3.407
--------------------------------------------------
tot          8.224   8.900  97.282 114.406



 magnetization (x)

# of ion       s       p       d       tot
------------------------------------------
    1       -0.011  -0.004   0.458   0.442
    2       -0.014  -0.003   0.460   0.443
    3       -0.011  -0.009   0.440   0.420
    4       -0.010  -0.009   0.445   0.426
    5       -0.010  -0.009   0.445   0.426
    6       -0.011  -0.009   0.440   0.420
    7       -0.014  -0.003   0.460   0.443
    8       -0.011  -0.004   0.458   0.442
    9       -0.039  -0.045  -3.532  -3.617
   10        0.030   0.040   3.545   3.615
   11        0.021   0.026   3.568   3.615
   12        0.023   0.023   3.529   3.575
   13        0.032   0.029   3.554   3.615
   14        0.033  -0.001   3.577   3.609
   15        0.007  -0.045  -0.009  -0.048
   16       -0.005  -0.091  -0.011  -0.107
--------------------------------------------------
tot          0.007  -0.114  17.827  17.719

    CHARGE:  cpu time    0.6966: real time    0.6974
    FORLOC:  cpu time    0.0065: real time    0.0079
    FORNL :  cpu time    5.0424: real time    5.0483
    STRESS:  cpu time   15.2104: real time   15.2301
    FORCOR:  cpu time    0.1008: real time    0.1010
    FORHAR:  cpu time    0.0161: real time    0.0161
    MIXING:  cpu time    0.0034: real time    0.0034
    OFIELD:  cpu time    0.0000: real time    0.0000

  FORCE on cell =-STRESS in cart. coord.  units (eV):
  Direction    XX          YY          ZZ          XY          YZ          ZX
  --------------------------------------------------------------------------------------
  Alpha Z   529.14932   529.14932   529.14932
  Ewald   -3131.71983 -3128.42578 -3128.42578     0.00000     0.00000     0.00000
  Hartree   939.85415   943.03061   943.03060    -0.00000    -0.00000    -0.00000
  E(xc)    -671.72733  -671.42819  -671.42819    -0.00000     0.00000    -0.00000
  Local    -163.06334  -167.74972  -167.74972     0.00000     0.00000     0.00000
  n-local  -147.00766  -147.59971  -143.68477    -0.05812     0.00934    -0.43477
  augment  1581.58371  1579.81900  1579.81900     0.00000    -0.00000    -0.00000
  Kinetic  1064.01536  1052.05845  1068.55581     1.18804     0.96814     0.55734
  Fock        0.00000     0.00000     0.00000     0.00000     0.00000     0.00000
  -------------------------------------------------------------------------------------
  Total       1.08437    -0.93988    -0.93988    -0.00000    -0.00000     0.00000
  in kB       8.16993    -7.08130    -7.08130    -0.00000    -0.00000     0.00000
  external pressure =       -2.00 kB  Pullay stress =        0.00 kB


 VOLUME and BASIS-vectors are now :
 -----------------------------------------------------------------------------
  energy-cutoff  :      550.00
  volume of cell :      212.65
      direct lattice vectors                 reciprocal lattice vectors
     5.968836799  0.000000000  0.000000000     0.167536831  0.000000000  0.000000000
     0.000000000  5.968836799  0.000000000     0.000000000  0.167536831  0.000000000
     0.000000000  0.000000000  5.968836799     0.000000000  0.000000000  0.167536831

  length of vectors
     5.968836799  5.968836799  5.968836799     0.167536831  0.167536831  0.167536831


 FORCES acting on ions
    electron-ion (+dipol)            ewald-force                    non-local-force                 convergence-correction
 -----------------------------------------------------------------------------------------------
   -.195E+02 0.383E+01 0.383E+01   0.195E+02 -.370E+01 -.370E+01   -.161E-01 -.114E+00 -.114E+00   0.560E-02 -.780E-02 -.780E-02
   0.195E+02 0.383E+01 0.383E+01   -.195E+02 -.370E+01 -.370E+01   0.161E-01 -.114E+00 -.114E+00   -.560E-02 -.780E-02 -.780E-02
   -.195E+02 -.383E+01 0.383E+01   0.195E+02 0.370E+01 -.370E+01   -.161E-01 0.114E+00 -.114E+00   0.560E-02 0.780E-02 -.780E-02
   0.195E+02 -.383E+01 0.383E+01   -.195E+02 0.370E+01 -.370E+01   0.161E-01 0.114E+00 -.114E+00   -.560E-02 0.780E-02 -.780E-02
   -.195E+02 0.383E+01 -.383E+01   0.195E+02 -.370E+01 0.370E+01   -.161E-01 -.114E+00 0.114E+00   0.560E-02 -.780E-02 0.780E-02
   0.195E+02 0.383E+01 -.383E+01   -.195E+02 -.370E+01 0.370E+01   0.161E-01 -.114E+00 0.114E+00   -.560E-02 -.780E-02 0.780E-02
   -.195E+02 -.383E+01 -.383E+01   0.195E+02 0.370E+01 0.370E+01   -.161E-01 0.114E+00 0.114E+00   0.560E-02 0.780E-02 0.780E-02
   0.195E+02 -.383E+01 -.383E+01   -.195E+02 0.370E+01 0.370E+01   0.161E-01 0.114E+00 0.114E+00   -.560E-02 0.780E-02 0.780E-02
   0.227E-12 -.203E-13 -.962E-12   0.102E-12 -.212E-14 -.446E-14   0.000E+00 0.000E+00 0.000E+00   -.296E-13 0.296E-13 0.437E-13
   0.224E-12 0.189E-12 0.185E-12   -.209E-12 0.186E-13 -.136E-13   0.000E+00 0.000E+00 0.000E+00   -.108E-13 -.188E-13 0.315E-13
   -.450E-13 0.220E-12 -.611E-13   -.746E-13 -.253E-13 -.438E-14   0.000E+00 0.000E+00 0.000E+00   0.275E-13 -.380E-13 0.487E-13
   -.509E-13 -.502E-13 0.203E-12   -.719E-13 -.384E-14 0.297E-13   0.000E+00 0.000E+00 0.000E+00   0.963E-14 0.355E-13 -.463E-13
   0.230E-12 -.359E-13 0.906E-12   -.171E-12 0.123E-13 -.383E-13   0.000E+00 0.000E+00 0.000E+00   -.197E-14 0.442E-13 -.581E-13
   -.519E-13 0.217E-12 0.195E-12   0.422E-13 0.318E-13 0.327E-13   0.000E+00 0.000E+00 0.000E+00   0.376E-14 -.410E-13 -.464E-13
   -.153E-14 -.263E-13 -.195E-13   -.725E-13 0.922E-14 0.543E-14   0.000E+00 0.000E+00 0.000E+00   0.938E-14 0.107E-13 0.193E-13
   0.111E-13 -.257E-12 -.616E-12   0.285E-15 0.711E-14 -.758E-14   0.000E+00 0.000E+00 0.000E+00   -.246E-14 -.141E-13 -.151E-13
 -----------------------------------------------------------------------------------------------
   0.185E-10 0.154E-10 0.424E-10   0.294E-15 -.516E-13 -.786E-13   0.694E-17 -.278E-16 0.139E-16   0.213E-12 0.218E-12 -.341E-12


 POSITION                                       TOTAL-FORCE (eV/Angst)
 -----------------------------------------------------------------------------------
      1.47061      1.49517      1.49517         0.007096     -0.000425     -0.000425
      4.49822      1.49517      1.49517        -0.007096     -0.000425     -0.000425
      1.47061      4.47366      1.49517         0.007096      0.000425     -0.000425
      4.49822      4.47366      1.49517        -0.007096      0.000425     -0.000425
      1.47061      1.49517      4.47366         0.007096     -0.000425      0.000425
      4.49822      1.49517      4.47366        -0.007096     -0.000425      0.000425
      1.47061      4.47366      4.47366         0.007096      0.000425      0.000425
      4.49822      4.47366      4.47366        -0.007096      0.000425      0.000425
      2.98442      0.00000      0.00000        -0.000000     -0.000000     -0.000000
      2.98442      2.98442      0.00000        -0.000000     -0.000000     -0.000000
      0.00000      2.98442      0.00000        -0.000000     -0.000000     -0.000000
      0.00000      0.00000      2.98442        -0.000000     -0.000000     -0.000000
      2.98442      0.00000      2.98442        -0.000000     -0.000000     -0.000000
      0.00000      2.98442      2.98442        -0.000000     -0.000000     -0.000000
      0.00000      0.00000      0.00000        -0.000000     -0.000000     -0.000000
      2.98442      2.98442      2.98442        -0.000000     -0.000000     -0.000000
 -----------------------------------------------------------------------------------
    total drift:                                0.000000      0.000000      0.000000


--------------------------------------------------------------------------------------------------------



  FREE ENERGIE OF THE ION-ELECTRON SYSTEM (eV)
  ---------------------------------------------------
  free  energy   TOTEN  =      -102.88479031 eV

  energy  without entropy=     -102.88201433  energy(sigma->0) =     -102.88340232



--------------------------------------------------------------------------------------------------------


    POTLOK:  cpu time    0.1352: real time    0.1353


--------------------------------------------------------------------------------------------------------




--------------------------------------------------------------------------------------------------------


  
 reached required accuracy - stopping structural energy minimisation
     LOOP+:  cpu time  375.1818: real time  377.0211
    4ORBIT:  cpu time    0.0000: real time    0.0000



 total charge     

# of ion       s       p       d       tot
------------------------------------------
    1        0.466   0.424   8.382   9.272
    2        0.464   0.424   8.370   9.258
    3        0.464   0.420   8.375   9.259
    4        0.466   0.420   8.368   9.254
    5        0.466   0.420   8.368   9.254
    6        0.464   0.420   8.375   9.259
    7        0.464   0.424   8.370   9.258
    8        0.466   0.424   8.382   9.272
    9        0.324   0.315   4.914   5.553
   10        0.330   0.317   4.936   5.583
   11        0.325   0.313   4.958   5.596
   12        0.335   0.324   4.917   5.576
   13        0.320   0.309   4.903   5.532
   14        0.335   0.310   4.959   5.604
   15        1.273   1.838   0.357   3.468
   16        1.261   1.798   0.348   3.407
--------------------------------------------------
tot          8.224   8.900  97.282 114.406



 magnetization (x)

# of ion       s       p       d       tot
------------------------------------------
    1       -0.011  -0.004   0.458   0.442
    2       -0.014  -0.003   0.460   0.443
    3       -0.011  -0.009   0.440   0.420
    4       -0.010  -0.009   0.445   0.426
    5       -0.010  -0.009   0.445   0.426
    6       -0.011  -0.009   0.440   0.420
    7       -0.014  -0.003   0.460   0.443
    8       -0.011  -0.004   0.458   0.442
    9       -0.039  -0.045  -3.532  -3.617
   10        0.030   0.040   3.545   3.615
   11        0.021   0.026   3.568   3.615
   12        0.023   0.023   3.529   3.575
   13        0.032   0.029   3.554   3.615
   14        0.033  -0.001   3.577   3.609
   15        0.007  -0.045  -0.009  -0.048
   16       -0.005  -0.091  -0.011  -0.107
--------------------------------------------------
tot          0.007  -0.114  17.827  17.719


 total amount of memory used by VASP MPI-rank0   103720. kBytes
=======================================================================

   base      :      30000. kBytes
   nonlr-proj:       6783. kBytes
   fftplans  :       1269. kBytes
   grid      :       6573. kBytes
   one-center:        497. kBytes
   wavefun   :      58598. kBytes

  
  
 General timing and accounting informations for this job:
 ========================================================
  
                  Total CPU time used (sec):      385.816
                            User time (sec):      365.692
                          System time (sec):       20.123
                         Elapsed time (sec):      388.178
  
                   Maximum memory used (kb):      138124.
                   Average memory used (kb):           0.
  
                          Minor page faults:      7439076
                          Major page faults:            7
                 Voluntary context switches:         2238
