 vasp.5.4.4.18Apr17-6-g9f103f2a35 (build May 21 2018 20:56:50) complex           
 executed on             LinuxGNU date 2021.10.15  15:41:49
 running on   12 total cores
 distrk:  each k-point on   12 cores,    1 groups
 distr:  one band on NCORES_PER_BAND=   1 cores,   12 groups


--------------------------------------------------------------------------------------------------------


 INCAR:
 POTCAR:    PAW_PBE Ni 02Aug2007                  
 POTCAR:    PAW_PBE Mn 06Sep2000                  
 POTCAR:    PAW_PBE In 08Apr2002                  

 ----------------------------------------------------------------------------- 
|                                                                             |
|           W    W    AA    RRRRR   N    N  II  N    N   GGGG   !!!           |
|           W    W   A  A   R    R  NN   N  II  NN   N  G    G  !!!           |
|           W    W  A    A  R    R  N N  N  II  N N  N  G       !!!           |
|           W WW W  AAAAAA  RRRRR   N  N N  II  N  N N  G  GGG   !            |
|           WW  WW  A    A  R   R   N   NN  II  N   NN  G    G                |
|           W    W  A    A  R    R  N    N  II  N    N   GGGG   !!!           |
|                                                                             |
|      For optimal performance we recommend to set                            |
|        NCORE= 4 - approx SQRT( number of cores)                             |
|      NCORE specifies how many cores store one orbital (NPAR=cpu/NCORE).     |
|      This setting can  greatly improve the performance of VASP for DFT.     |
|      The default,   NCORE=1            might be grossly inefficient         |
|      on modern multi-core architectures or massively parallel machines.     |
|      Do your own testing !!!!                                               |
|      Unfortunately you need to use the default for GW and RPA calculations. |
|      (for HF NCORE is supported but not extensively tested yet)             |
|                                                                             |
 ----------------------------------------------------------------------------- 

 POTCAR:    PAW_PBE Ni 02Aug2007                  
   VRHFIN =Ni:                                                                  
   LEXCH  = PE                                                                  
   EATOM  =  1077.6739 eV,   79.2068 Ry                                         
                                                                                
   TITEL  = PAW_PBE Ni 02Aug2007                                                
   LULTRA =        F    use ultrasoft PP ?                                      
   IUNSCR =        1    unscreen: 0-lin 1-nonlin 2-no                           
   RPACOR =    2.000    partial core radius                                     
   POMASS =   58.690; ZVAL   =   10.000    mass and valenz                      
   RCORE  =    2.300    outmost cutoff radius                                   
   RWIGS  =    2.430; RWIGS  =    1.286    wigner-seitz radius (au A)           
   ENMAX  =  269.532; ENMIN  =  202.149 eV                                      
   RCLOC  =    1.201    cutoff for local pot                                    
   LCOR   =        T    correct aug charges                                     
   LPAW   =        T    paw PP                                                  
   EAUG   =  544.565                                                            
   DEXC   =    0.000                                                            
   RMAX   =    2.357    core radius for proj-oper                               
   RAUG   =    1.300    factor for augmentation sphere                          
   RDEP   =    2.390    radius for radial grids                                 
   RDEPT  =    1.838    core radius for aug-charge                              
                                                                                
   Atomic configuration                                                         
    9 entries                                                                   
     n  l   j            E        occ.                                          
     1  0  0.50     -8206.4253   2.0000                                         
     2  0  0.50      -976.1748   2.0000                                         
     2  1  1.50      -839.0571   6.0000                                         
     3  0  0.50      -105.9991   2.0000                                         
     3  1  1.50       -66.4603   6.0000                                         
     3  2  2.50        -4.6458   9.0000                                         
     4  0  0.50        -4.4926   1.0000                                         
     4  1  1.50        -4.0817   0.0000                                         
     4  3  2.50        -1.3606   0.0000                                         
   Description                                                                  
     l       E           TYP  RCUT    TYP  RCUT                                 
     2     -4.6457903     23  2.300                                             
     2     -6.0063729     23  2.300                                             
     0     -4.4925590     23  2.300                                             
     0      5.0102601     23  2.300                                             
     1     -2.7211652     23  2.300                                             
     1     16.5183231     23  2.300                                             
  local pseudopotential read in
  partial core-charges read in
  partial kinetic energy density read in
  atomic valenz-charges read in
  non local Contribution for L=           2  read in
    real space projection operators read in
  non local Contribution for L=           2  read in
    real space projection operators read in
  non local Contribution for L=           0  read in
    real space projection operators read in
  non local Contribution for L=           0  read in
    real space projection operators read in
  non local Contribution for L=           1  read in
    real space projection operators read in
  non local Contribution for L=           1  read in
    real space projection operators read in
    PAW grid and wavefunctions read in

   number of l-projection  operators is LMAX  =           6
   number of lm-projection operators is LMMAX =          18

 POTCAR:    PAW_PBE Mn 06Sep2000                  
   VRHFIN =Mn: d6 s1                                                            
   LEXCH  = PE                                                                  
   EATOM  =   416.7541 eV,   30.6306 Ry                                         
                                                                                
   TITEL  = PAW_PBE Mn 06Sep2000                                                
   LULTRA =        F    use ultrasoft PP ?                                      
   IUNSCR =        1    unscreen: 0-lin 1-nonlin 2-no                           
   RPACOR =    2.000    partial core radius                                     
   POMASS =   54.938; ZVAL   =    7.000    mass and valenz                      
   RCORE  =    2.300    outmost cutoff radius                                   
   RWIGS  =    2.500; RWIGS  =    1.323    wigner-seitz radius (au A)           
   ENMAX  =  269.864; ENMIN  =  202.398 eV                                      
   RCLOC  =    1.725    cutoff for local pot                                    
   LCOR   =        T    correct aug charges                                     
   LPAW   =        T    paw PP                                                  
   EAUG   =  500.711                                                            
   DEXC   =    0.000                                                            
   RMAX   =    2.343    core radius for proj-oper                               
   RAUG   =    1.300    factor for augmentation sphere                          
   RDEP   =    2.338    radius for radial grids                                 
   RDEPT  =    1.911    core radius for aug-charge                              
                                                                                
   Atomic configuration                                                         
    9 entries                                                                   
     n  l   j            E        occ.                                          
     1  0  0.50     -6424.8288   2.0000                                         
     2  0  0.50      -739.1154   2.0000                                         
     2  1  1.50      -625.3949   6.0000                                         
     3  0  0.50       -81.6100   2.0000                                         
     3  1  1.50       -50.4667   6.0000                                         
     3  2  2.50        -3.3745   6.0000                                         
     4  0  0.50        -4.1331   1.0000                                         
     4  1  0.50        -4.0817   0.0000                                         
     4  3  2.50        -1.3606   0.0000                                         
   Description                                                                  
     l       E           TYP  RCUT    TYP  RCUT                                 
     2     -3.3744664     23  2.300                                             
     2     -4.7350490     23  2.300                                             
     0     -4.1331408     23  2.300                                             
     0      7.6656614     23  2.300                                             
     1     -2.7211652     23  2.300                                             
     1     20.4087390     23  2.300                                             
  local pseudopotential read in
  partial core-charges read in
  partial kinetic energy density read in
  atomic valenz-charges read in
  non local Contribution for L=           2  read in
    real space projection operators read in
  non local Contribution for L=           2  read in
    real space projection operators read in
  non local Contribution for L=           0  read in
    real space projection operators read in
  non local Contribution for L=           0  read in
    real space projection operators read in
  non local Contribution for L=           1  read in
    real space projection operators read in
  non local Contribution for L=           1  read in
    real space projection operators read in
    PAW grid and wavefunctions read in

   number of l-projection  operators is LMAX  =           6
   number of lm-projection operators is LMMAX =          18

 POTCAR:    PAW_PBE In 08Apr2002                  
   VRHFIN =In: s2p1                                                             
   LEXCH  = PE                                                                  
   EATOM  =    53.7908 eV,    3.9535 Ry                                         
                                                                                
   TITEL  = PAW_PBE In 08Apr2002                                                
   LULTRA =        F    use ultrasoft PP ?                                      
   IUNSCR =        1    unscreen: 0-lin 1-nonlin 2-no                           
   RPACOR =    2.400    partial core radius                                     
   POMASS =  114.820; ZVAL   =    3.000    mass and valenz                      
   RCORE  =    3.100    outmost cutoff radius                                   
   RWIGS  =    3.170; RWIGS  =    1.677    wigner-seitz radius (au A)           
   ENMAX  =   95.934; ENMIN  =   71.951 eV                                      
   ICORE  =        3    local potential                                         
   LCOR   =        T    correct aug charges                                     
   LPAW   =        T    paw PP                                                  
   EAUG   =  237.125                                                            
   DEXC   =    0.000                                                            
   RMAX   =    3.168    core radius for proj-oper                               
   RAUG   =    1.300    factor for augmentation sphere                          
   RDEP   =    3.187    radius for radial grids                                 
   RDEPT  =    2.711    core radius for aug-charge                              
                                                                                
   Atomic configuration                                                         
   13 entries                                                                   
     n  l   j            E        occ.                                          
     1  0  0.50    -27747.9169   2.0000                                         
     2  0  0.50     -4154.4438   2.0000                                         
     2  1  1.50     -3728.4305   6.0000                                         
     3  0  0.50      -788.3680   2.0000                                         
     3  1  1.50      -648.9215   6.0000                                         
     3  2  2.50      -432.5893  10.0000                                         
     4  0  0.50      -119.6363   2.0000                                         
     4  1  1.50       -78.1086   6.0000                                         
     4  2  2.50       -18.6227  10.0000                                         
     5  0  0.50        -8.2107   2.0000                                         
     5  1  0.50        -2.5185   1.0000                                         
     5  2  2.50        -1.3606   0.0000                                         
     4  3  2.50        -2.7212   0.0000                                         
   Description                                                                  
     l       E           TYP  RCUT    TYP  RCUT                                 
     0     -8.2107306     23  3.100                                             
     0     -6.1485975     23  3.100                                             
     1     -2.5184867     23  3.100                                             
     1      3.2427302     23  3.100                                             
     2     -1.3605826     23  3.100                                             
     3     -1.3605826     23  3.100                                             
  local pseudopotential read in
  partial core-charges read in
  partial kinetic energy density read in
  atomic valenz-charges read in
  non local Contribution for L=           0  read in
    real space projection operators read in
  non local Contribution for L=           0  read in
    real space projection operators read in
  non local Contribution for L=           1  read in
    real space projection operators read in
  non local Contribution for L=           1  read in
    real space projection operators read in
  non local Contribution for L=           2  read in
    real space projection operators read in
    PAW grid and wavefunctions read in

   number of l-projection  operators is LMAX  =           5
   number of lm-projection operators is LMMAX =          13

 Optimization of the real space projectors (new method)

 maximal supplied QI-value         = 16.25
 optimisation between [QCUT,QGAM] = [ 11.86, 23.89] = [ 39.41,159.82] Ry 
 Optimized for a Real-space Cutoff    1.33 Angstroem

   l    n(q)    QCUT    max X(q) W(low)/X(q) W(high)/X(q)  e(spline) 
   2      9    11.864    60.317    0.21E-03    0.51E-03    0.25E-06
   2      9    11.864    55.921    0.21E-03    0.51E-03    0.26E-06
   0      9    11.864    51.690    0.22E-03    0.30E-04    0.17E-06
   0      9    11.864    30.015    0.20E-03    0.28E-04    0.15E-06
   1      9    11.864    18.849    0.76E-04    0.33E-03    0.17E-06
   1      9    11.864    14.624    0.60E-04    0.28E-03    0.15E-06
 Optimization of the real space projectors (new method)

 maximal supplied QI-value         = 16.25
 optimisation between [QCUT,QGAM] = [ 11.86, 23.89] = [ 39.41,159.82] Ry 
 Optimized for a Real-space Cutoff    1.36 Angstroem

   l    n(q)    QCUT    max X(q) W(low)/X(q) W(high)/X(q)  e(spline) 
   2      9    11.864   110.144    0.49E-03    0.50E-03    0.21E-06
   2      9    11.864   103.200    0.49E-03    0.51E-03    0.22E-06
   0     10    11.864    68.437    0.12E-03    0.41E-04    0.21E-06
   0     10    11.864    33.971    0.11E-03    0.36E-04    0.19E-06
   1      9    11.864    17.065    0.24E-03    0.26E-03    0.93E-07
   1      9    11.864    12.540    0.19E-03    0.20E-03    0.80E-07
 Optimization of the real space projectors (new method)

 maximal supplied QI-value         = 12.09
 optimisation between [QCUT,QGAM] = [ 11.97, 23.95] = [ 40.14,160.58] Ry 
 Optimized for a Real-space Cutoff    1.63 Angstroem

   l    n(q)    QCUT    max X(q) W(low)/X(q) W(high)/X(q)  e(spline) 
   0     12    11.973   106.980    0.33E-03    0.16E-03    0.25E-05
   0     12    11.973    81.086    0.37E-03    0.18E-03    0.28E-05
   1     11    11.973    53.097    0.22E-03    0.42E-03    0.40E-05
   1     11    11.973    32.621    0.20E-03    0.40E-03    0.37E-05
   2     11    11.973     8.820    0.30E-03    0.17E-03    0.41E-06
  PAW_PBE Ni 02Aug2007                  :
 energy of atom  1       EATOM=-1077.6739
 kinetic energy error for atom=    0.0027 (will be added to EATOM!!)
  PAW_PBE Mn 06Sep2000                  :
 energy of atom  2       EATOM= -416.7541
 kinetic energy error for atom=    0.0022 (will be added to EATOM!!)
  PAW_PBE In 08Apr2002                  :
 energy of atom  3       EATOM=  -53.7908
 kinetic energy error for atom=    0.0000 (will be added to EATOM!!)


 POSCAR: Ni2MnIn                                 
  positions in direct lattice
  velocities in cartesian coordinates
 exchange correlation table for  LEXCH =        8
   RHO(1)=    0.500       N(1)  =     2000
   RHO(2)=  100.500       N(2)  =     4000



--------------------------------------------------------------------------------------------------------


 ion  position               nearest neighbor table
   1  0.250  0.264  0.267-  14 2.48  13 2.48  11 2.58  12 2.58  10 2.60   9 2.60  15 2.69  16 2.70
                             5 2.78   3 2.82   2 2.99   2 2.99
   2  0.750  0.264  0.267-  14 2.48  13 2.48  11 2.58  12 2.58  10 2.60   9 2.60  15 2.69  16 2.70
                             6 2.78   4 2.82   1 2.99   1 2.99
   3  0.250  0.736  0.267-  14 2.48  13 2.48  11 2.58  12 2.58  10 2.60   9 2.60  15 2.69  16 2.70
                             7 2.78   1 2.82   4 2.99   4 2.99
   4  0.750  0.736  0.267-  14 2.48  13 2.48  11 2.58  12 2.58  10 2.60   9 2.60  15 2.69  16 2.70
                             8 2.78   2 2.82   3 2.99   3 2.99
   5  0.250  0.264  0.733-  14 2.48  13 2.48  11 2.58  12 2.58  10 2.60   9 2.60  15 2.69  16 2.70
                             1 2.78   7 2.82   6 2.99   6 2.99
   6  0.750  0.264  0.733-  14 2.48  13 2.48  11 2.58  12 2.58  10 2.60   9 2.60  15 2.69  16 2.70
                             2 2.78   8 2.82   5 2.99   5 2.99
   7  0.250  0.736  0.733-  14 2.48  13 2.48  11 2.58  12 2.58  10 2.60   9 2.60  15 2.69  16 2.70
                             3 2.78   5 2.82   8 2.99   8 2.99
   8  0.750  0.736  0.733-  14 2.48  13 2.48  11 2.58  12 2.58  10 2.60   9 2.60  15 2.69  16 2.70
                             4 2.78   6 2.82   7 2.99   7 2.99
   9  0.500  0.500  0.000-   1 2.60   2 2.60   3 2.60   4 2.60   5 2.60   6 2.60   7 2.60   8 2.60
                            10 2.99  13 2.99  16 2.99  13 2.99  16 2.99  10 2.99
  10  0.000  0.500  0.000-   1 2.60   2 2.60   3 2.60   4 2.60   5 2.60   6 2.60   7 2.60   8 2.60
                             9 2.99  14 2.99  15 2.99  14 2.99  15 2.99   9 2.99
  11  0.000  0.000  0.500-   1 2.58   2 2.58   3 2.58   4 2.58   5 2.58   6 2.58   7 2.58   8 2.58
                            12 2.99  14 2.99  15 2.99  15 2.99  14 2.99  12 2.99
  12  0.500  0.000  0.500-   1 2.58   2 2.58   3 2.58   4 2.58   5 2.58   6 2.58   7 2.58   8 2.58
                            11 2.99  13 2.99  16 2.99  16 2.99  13 2.99  11 2.99
  13  0.500  0.500  0.500-   1 2.48   2 2.48   3 2.48   4 2.48   5 2.48   6 2.48   7 2.48   8 2.48
                             9 2.99  12 2.99  14 2.99   9 2.99  12 2.99  14 2.99
  14  0.000  0.500  0.500-   1 2.48   2 2.48   3 2.48   4 2.48   5 2.48   6 2.48   7 2.48   8 2.48
                            10 2.99  11 2.99  13 2.99  10 2.99  11 2.99  13 2.99
  15  0.000  0.000  0.000-   1 2.69   2 2.69   3 2.69   4 2.69   5 2.69   6 2.69   7 2.69   8 2.69
                            10 2.99  11 2.99  16 2.99  11 2.99  10 2.99  16 2.99
  16  0.500  0.000  0.000-   1 2.70   2 2.70   3 2.70   4 2.70   5 2.70   6 2.70   7 2.70   8 2.70
                             9 2.99  12 2.99  15 2.99  12 2.99   9 2.99  15 2.99

  LATTYP: Found a simple cubic cell.
 ALAT       =     5.9730612829
  
  Lattice vectors:
  
 A1 = (   5.9730612829,   0.0000000000,   0.0000000000)
 A2 = (   0.0000000000,   5.9730612829,   0.0000000000)
 A3 = (   0.0000000000,   0.0000000000,   5.9730612829)


Analysis of symmetry for initial positions (statically):
=====================================================================
 Subroutine PRICEL returns:
 Original cell was already a primitive cell.
 

 Routine SETGRP: Setting up the symmetry group for a 
 simple cubic supercell.


 Subroutine GETGRP returns: Found  8 space group operations
 (whereof  8 operations were pure point group operations)
 out of a pool of 48 trial point group operations.


The static configuration has the point symmetry D_2h.


Analysis of symmetry for dynamics (positions and initial velocities):
=====================================================================
 Subroutine PRICEL returns:
 Original cell was already a primitive cell.
 

 Routine SETGRP: Setting up the symmetry group for a 
 simple cubic supercell.


 Subroutine GETGRP returns: Found  8 space group operations
 (whereof  8 operations were pure point group operations)
 out of a pool of 48 trial point group operations.


The dynamic configuration has the point symmetry D_2h.


Analysis of structural, dynamic, and magnetic symmetry:
=====================================================================
 Subroutine PRICEL returns:
 Original cell was already a primitive cell.
 

 Routine SETGRP: Setting up the symmetry group for a 
 simple cubic supercell.


 Subroutine GETGRP returns: Found  8 space group operations
 (whereof  8 operations were pure point group operations)
 out of a pool of 48 trial point group operations.


The magnetic configuration has the point symmetry D_2h.


 Subroutine INISYM returns: Found  8 space group operations
 (whereof  8 operations are pure point group operations),
 and found     1 'primitive' translations



 KPOINTS: k-points                                

Automatic generation of k-mesh.
Space group operators:
 irot       det(A)        alpha          n_x          n_y          n_z        tau_x        tau_y        tau_z
    1     1.000000     0.000000     1.000000     0.000000     0.000000     0.000000     0.000000     0.000000
    2    -1.000000     0.000000     1.000000     0.000000     0.000000     0.000000     0.000000     0.000000
    3     1.000000   180.000000     0.000000     0.000000     1.000000     0.000000     0.000000     0.000000
    4    -1.000000   180.000000     0.000000     0.000000     1.000000     0.000000     0.000000     0.000000
    5     1.000000   180.000000     1.000000     0.000000     0.000000     0.000000     0.000000     0.000000
    6    -1.000000   180.000000     1.000000     0.000000     0.000000     0.000000     0.000000     0.000000
    7     1.000000   180.000000     0.000000     1.000000     0.000000     0.000000     0.000000     0.000000
    8    -1.000000   180.000000     0.000000     1.000000     0.000000     0.000000     0.000000     0.000000
 
 Subroutine IBZKPT returns following result:
 ===========================================
 
 Found     64 irreducible k-points:
 
 Following reciprocal coordinates:
            Coordinates               Weight
  0.000000  0.000000  0.000000      1.000000
  0.142857  0.000000  0.000000      2.000000
  0.285714  0.000000  0.000000      2.000000
  0.428571  0.000000  0.000000      2.000000
  0.000000  0.142857  0.000000      2.000000
  0.142857  0.142857  0.000000      4.000000
  0.285714  0.142857  0.000000      4.000000
  0.428571  0.142857  0.000000      4.000000
  0.000000  0.285714  0.000000      2.000000
  0.142857  0.285714  0.000000      4.000000
  0.285714  0.285714  0.000000      4.000000
  0.428571  0.285714  0.000000      4.000000
  0.000000  0.428571  0.000000      2.000000
  0.142857  0.428571  0.000000      4.000000
  0.285714  0.428571  0.000000      4.000000
  0.428571  0.428571  0.000000      4.000000
  0.000000  0.000000  0.142857      2.000000
  0.142857  0.000000  0.142857      4.000000
  0.285714  0.000000  0.142857      4.000000
  0.428571  0.000000  0.142857      4.000000
  0.000000  0.142857  0.142857      4.000000
  0.142857  0.142857  0.142857      8.000000
  0.285714  0.142857  0.142857      8.000000
  0.428571  0.142857  0.142857      8.000000
  0.000000  0.285714  0.142857      4.000000
  0.142857  0.285714  0.142857      8.000000
  0.285714  0.285714  0.142857      8.000000
  0.428571  0.285714  0.142857      8.000000
  0.000000  0.428571  0.142857      4.000000
  0.142857  0.428571  0.142857      8.000000
  0.285714  0.428571  0.142857      8.000000
  0.428571  0.428571  0.142857      8.000000
  0.000000  0.000000  0.285714      2.000000
  0.142857  0.000000  0.285714      4.000000
  0.285714  0.000000  0.285714      4.000000
  0.428571  0.000000  0.285714      4.000000
  0.000000  0.142857  0.285714      4.000000
  0.142857  0.142857  0.285714      8.000000
  0.285714  0.142857  0.285714      8.000000
  0.428571  0.142857  0.285714      8.000000
  0.000000  0.285714  0.285714      4.000000
  0.142857  0.285714  0.285714      8.000000
  0.285714  0.285714  0.285714      8.000000
  0.428571  0.285714  0.285714      8.000000
  0.000000  0.428571  0.285714      4.000000
  0.142857  0.428571  0.285714      8.000000
  0.285714  0.428571  0.285714      8.000000
  0.428571  0.428571  0.285714      8.000000
  0.000000  0.000000  0.428571      2.000000
  0.142857  0.000000  0.428571      4.000000
  0.285714  0.000000  0.428571      4.000000
  0.428571  0.000000  0.428571      4.000000
  0.000000  0.142857  0.428571      4.000000
  0.142857  0.142857  0.428571      8.000000
  0.285714  0.142857  0.428571      8.000000
  0.428571  0.142857  0.428571      8.000000
  0.000000  0.285714  0.428571      4.000000
  0.142857  0.285714  0.428571      8.000000
  0.285714  0.285714  0.428571      8.000000
  0.428571  0.285714  0.428571      8.000000
  0.000000  0.428571  0.428571      4.000000
  0.142857  0.428571  0.428571      8.000000
  0.285714  0.428571  0.428571      8.000000
  0.428571  0.428571  0.428571      8.000000
 
 Following cartesian coordinates:
            Coordinates               Weight
  0.000000  0.000000  0.000000      1.000000
  0.137761  0.000000  0.000000      2.000000
  0.275523  0.000000  0.000000      2.000000
  0.413284  0.000000  0.000000      2.000000
  0.000000  0.137761  0.000000      2.000000
  0.137761  0.137761  0.000000      4.000000
  0.275523  0.137761  0.000000      4.000000
  0.413284  0.137761  0.000000      4.000000
  0.000000  0.275523  0.000000      2.000000
  0.137761  0.275523  0.000000      4.000000
  0.275523  0.275523  0.000000      4.000000
  0.413284  0.275523  0.000000      4.000000
  0.000000  0.413284  0.000000      2.000000
  0.137761  0.413284  0.000000      4.000000
  0.275523  0.413284  0.000000      4.000000
  0.413284  0.413284  0.000000      4.000000
  0.000000  0.000000  0.137761      2.000000
  0.137761  0.000000  0.137761      4.000000
  0.275523  0.000000  0.137761      4.000000
  0.413284  0.000000  0.137761      4.000000
  0.000000  0.137761  0.137761      4.000000
  0.137761  0.137761  0.137761      8.000000
  0.275523  0.137761  0.137761      8.000000
  0.413284  0.137761  0.137761      8.000000
  0.000000  0.275523  0.137761      4.000000
  0.137761  0.275523  0.137761      8.000000
  0.275523  0.275523  0.137761      8.000000
  0.413284  0.275523  0.137761      8.000000
  0.000000  0.413284  0.137761      4.000000
  0.137761  0.413284  0.137761      8.000000
  0.275523  0.413284  0.137761      8.000000
  0.413284  0.413284  0.137761      8.000000
  0.000000  0.000000  0.275523      2.000000
  0.137761  0.000000  0.275523      4.000000
  0.275523  0.000000  0.275523      4.000000
  0.413284  0.000000  0.275523      4.000000
  0.000000  0.137761  0.275523      4.000000
  0.137761  0.137761  0.275523      8.000000
  0.275523  0.137761  0.275523      8.000000
  0.413284  0.137761  0.275523      8.000000
  0.000000  0.275523  0.275523      4.000000
  0.137761  0.275523  0.275523      8.000000
  0.275523  0.275523  0.275523      8.000000
  0.413284  0.275523  0.275523      8.000000
  0.000000  0.413284  0.275523      4.000000
  0.137761  0.413284  0.275523      8.000000
  0.275523  0.413284  0.275523      8.000000
  0.413284  0.413284  0.275523      8.000000
  0.000000  0.000000  0.413284      2.000000
  0.137761  0.000000  0.413284      4.000000
  0.275523  0.000000  0.413284      4.000000
  0.413284  0.000000  0.413284      4.000000
  0.000000  0.137761  0.413284      4.000000
  0.137761  0.137761  0.413284      8.000000
  0.275523  0.137761  0.413284      8.000000
  0.413284  0.137761  0.413284      8.000000
  0.000000  0.275523  0.413284      4.000000
  0.137761  0.275523  0.413284      8.000000
  0.275523  0.275523  0.413284      8.000000
  0.413284  0.275523  0.413284      8.000000
  0.000000  0.413284  0.413284      4.000000
  0.137761  0.413284  0.413284      8.000000
  0.275523  0.413284  0.413284      8.000000
  0.413284  0.413284  0.413284      8.000000
 


--------------------------------------------------------------------------------------------------------




 Dimension of arrays:
   k-points           NKPTS =     64   k-points in BZ     NKDIM =     64   number of bands    NBANDS=     84
   number of dos      NEDOS =    301   number of ions     NIONS =     16
   non local maximal  LDIM  =      6   non local SUM 2l+1 LMDIM =     18
   total plane-waves  NPLWV =  46656
   max r-space proj   IRMAX =   4019   max aug-charges    IRDMAX=  24895
   dimension x,y,z NGX =    36 NGY =   36 NGZ =   36
   dimension x,y,z NGXF=    72 NGYF=   72 NGZF=   72
   support grid    NGXF=    72 NGYF=   72 NGZF=   72
   ions per type =               8   6   2
   NGX,Y,Z   is equivalent  to a cutoff of  10.02, 10.02, 10.02 a.u.
   NGXF,Y,Z  is equivalent  to a cutoff of  20.04, 20.04, 20.04 a.u.

 SYSTEM =  Testrun for NiMnIn                      
 POSCAR =  Ni2MnIn                                 

 Startparameter for this run:
   NWRITE =      2    write-flag & timer
   PREC   = normal    normal or accurate (medium, high low for compatibility)
   ISTART =      0    job   : 0-new  1-cont  2-samecut
   ICHARG =      2    charge: 1-file 2-atom 10-const
   ISPIN  =      2    spin polarized calculation?
   LNONCOLLINEAR =      F non collinear calculations
   LSORBIT =      F    spin-orbit coupling
   INIWAV =      1    electr: 0-lowe 1-rand  2-diag
   LASPH  =      F    aspherical Exc in radial PAW
   METAGGA=      F    non-selfconsistent MetaGGA calc.

 Electronic Relaxation 1
   ENCUT  =  550.0 eV  40.42 Ry    6.36 a.u.  11.42 11.42 11.42*2*pi/ulx,y,z
   ENINI  =  550.0     initial cutoff
   ENAUG  =  544.6 eV  augmentation charge cutoff
   NELM   =     60;   NELMIN=  2; NELMDL= -5     # of ELM steps 
   EDIFF  = 0.1E-04   stopping-criterion for ELM
   LREAL  =      T    real-space projection
   NLSPLINE    = F    spline interpolate recip. space projectors
   LCOMPAT=      F    compatible to vasp.4.4
   GGA_COMPAT  = T    GGA compatible to vasp.4.4-vasp.4.6
   LMAXPAW     = -100 max onsite density
   LMAXMIX     =    2 max onsite mixed and CHGCAR
   VOSKOWN=      0    Vosko Wilk Nusair interpolation
   ROPT   =   -0.00050  -0.00050  -0.00050
 Ionic relaxation
   EDIFFG = -.1E-01   stopping-criterion for IOM
   NSW    =   1000    number of steps for IOM
   NBLOCK =      1;   KBLOCK =   1000    inner block; outer block 
   IBRION =      2    ionic relax: 0-MD 1-quasi-New 2-CG
   NFREE  =      1    steps in history (QN), initial steepest desc. (CG)
   ISIF   =      2    stress and relaxation
   IWAVPR =     11    prediction:  0-non 1-charg 2-wave 3-comb
   ISYM   =      2    0-nonsym 1-usesym 2-fastsym
   LCORR  =      T    Harris-Foulkes like correction to forces

   POTIM  = 0.5000    time-step for ionic-motion
   TEIN   =    0.0    initial temperature
   TEBEG  =    0.0;   TEEND  =   0.0 temperature during run
   SMASS  =  -3.00    Nose mass-parameter (am)
   estimated Nose-frequenzy (Omega)   =  0.10E-29 period in steps =****** mass=  -0.815E-27a.u.
   SCALEE = 1.0000    scale energy and forces
   NPACO  =    256;   APACO  = 16.0  distance and # of slots for P.C.
   PSTRESS=    0.0 pullay stress

  Mass of Ions in am
   POMASS =  58.69 54.94114.82
  Ionic Valenz
   ZVAL   =  10.00  7.00  3.00
  Atomic Wigner-Seitz radii
   RWIGS  =  -1.00 -1.00 -1.00
  virtual crystal weights 
   VCA    =   1.00  1.00  1.00
   NELECT =     128.0000    total number of electrons
   NUPDOWN=      -1.0000    fix difference up-down

 DOS related values:
   EMIN   =  10.00;   EMAX   =-10.00  energy-range for DOS
   EFERMI =   0.00
   ISMEAR =     0;   SIGMA  =   0.02  broadening in eV -4-tet -1-fermi 0-gaus

 Electronic relaxation 2 (details)
   IALGO  =     68    algorithm
   LDIAG  =      T    sub-space diagonalisation (order eigenvalues)
   LSUBROT=      F    optimize rotation matrix (better conditioning)
   TURBO    =      0    0=normal 1=particle mesh
   IRESTART =      0    0=no restart 2=restart with 2 vectors
   NREBOOT  =      0    no. of reboots
   NMIN     =      0    reboot dimension
   EREF     =   0.00    reference energy to select bands
   IMIX   =      4    mixing-type and parameters
     AMIX     =   0.40;   BMIX     =  1.00
     AMIX_MAG =   1.60;   BMIX_MAG =  1.00
     AMIN     =   0.10
     WC   =   100.;   INIMIX=   1;  MIXPRE=   1;  MAXMIX= -45

 Intra band minimization:
   WEIMIN = 0.0010     energy-eigenvalue tresh-hold
   EBREAK =  0.30E-07  absolut break condition
   DEPER  =   0.30     relativ break condition  

   TIME   =   0.40     timestep for ELM

  volume/ion in A,a.u.               =      13.32        89.88
  Fermi-wavevector in a.u.,A,eV,Ry     =   1.381278  2.610237 25.958959  1.907930
  Thomas-Fermi vector in A             =   2.506077

 Write flags
   LWAVE        =      F    write WAVECAR
   LDOWNSAMPLE  =      F    k-point downsampling of WAVECAR
   LCHARG       =      T    write CHGCAR
   LVTOT        =      F    write LOCPOT, total local potential
   LVHAR        =      F    write LOCPOT, Hartree potential only
   LELF         =      F    write electronic localiz. function (ELF)
   LORBIT       =     11    0 simple, 1 ext, 2 COOP (PROOUT), +10 PAW based schemes


 Dipole corrections
   LMONO  =      F    monopole corrections only (constant potential shift)
   LDIPOL =      F    correct potential (dipole corrections)
   IDIPOL =      0    1-x, 2-y, 3-z, 4-all directions 
   EPSILON=  1.0000000 bulk dielectric constant

 Exchange correlation treatment:
   GGA     =    --    GGA type
   LEXCH   =     8    internal setting for exchange type
   VOSKOWN=      0    Vosko Wilk Nusair interpolation
   LHFCALC =     F    Hartree Fock is set to
   LHFONE  =     F    Hartree Fock one center treatment
   AEXX    =    0.0000 exact exchange contribution

 Linear response parameters
   LEPSILON=     F    determine dielectric tensor
   LRPA    =     F    only Hartree local field effects (RPA)
   LNABLA  =     F    use nabla operator in PAW spheres
   LVEL    =     F    velocity operator in full k-point grid
   LINTERFAST=   F  fast interpolation
   KINTER  =     0    interpolate to denser k-point grid
   CSHIFT  =0.1000    complex shift for real part using Kramers Kronig
   OMEGAMAX=  -1.0    maximum frequency
   DEG_THRESHOLD= 0.2000000E-02 threshold for treating states as degnerate
   RTIME   =   -0.100 relaxation time in fs
  (WPLASMAI=    0.000 imaginary part of plasma frequency in eV, 0.658/RTIME)
   DFIELD  = 0.0000000 0.0000000 0.0000000 field for delta impulse in time

 Orbital magnetization related:
   ORBITALMAG=     F  switch on orbital magnetization
   LCHIMAG   =     F  perturbation theory with respect to B field
   DQ        =  0.001000  dq finite difference perturbation B field
   LLRAUG    =     F  two centre corrections for induced B field



--------------------------------------------------------------------------------------------------------


 conjugate gradient relaxation of ions
 charge density and potential will be updated during run
 spin polarized calculation
 RMM-DIIS sequential band-by-band and
  variant of blocked Davidson during initial phase
 perform sub-space diagonalisation
    before iterative eigenvector-optimisation
 modified Broyden-mixing scheme, WC =      100.0
 initial mixing is a Kerker type mixing with AMIX =  0.4000 and BMIX =      1.0000
 Hartree-type preconditioning will be used
 using additional bands           20
 real space projection scheme for non local part
 use partial core corrections
 calculate Harris-corrections to forces   (improved forces if not selfconsistent)
 use gradient corrections 
 use of overlap-Matrix (Vanderbilt PP)
 Gauss-broadening in eV      SIGMA  =   0.02


--------------------------------------------------------------------------------------------------------


  energy-cutoff  :      550.00
  volume of cell :      213.10
      direct lattice vectors                 reciprocal lattice vectors
     5.973061283  0.000000000  0.000000000     0.167418339  0.000000000  0.000000000
     0.000000000  5.973061283  0.000000000     0.000000000  0.167418339  0.000000000
     0.000000000  0.000000000  5.973061283     0.000000000  0.000000000  0.167418339

  length of vectors
     5.973061283  5.973061283  5.973061283     0.167418339  0.167418339  0.167418339



 k-points in units of 2pi/SCALE and weight: k-points                                
   0.00000000  0.00000000  0.00000000       0.003
   0.13776138  0.00000000  0.00000000       0.006
   0.27552275  0.00000000  0.00000000       0.006
   0.41328413  0.00000000  0.00000000       0.006
   0.00000000  0.13776138  0.00000000       0.006
   0.13776138  0.13776138  0.00000000       0.012
   0.27552275  0.13776138  0.00000000       0.012
   0.41328413  0.13776138  0.00000000       0.012
   0.00000000  0.27552275  0.00000000       0.006
   0.13776138  0.27552275  0.00000000       0.012
   0.27552275  0.27552275  0.00000000       0.012
   0.41328413  0.27552275  0.00000000       0.012
   0.00000000  0.41328413  0.00000000       0.006
   0.13776138  0.41328413  0.00000000       0.012
   0.27552275  0.41328413  0.00000000       0.012
   0.41328413  0.41328413  0.00000000       0.012
   0.00000000  0.00000000  0.13776138       0.006
   0.13776138  0.00000000  0.13776138       0.012
   0.27552275  0.00000000  0.13776138       0.012
   0.41328413  0.00000000  0.13776138       0.012
   0.00000000  0.13776138  0.13776138       0.012
   0.13776138  0.13776138  0.13776138       0.023
   0.27552275  0.13776138  0.13776138       0.023
   0.41328413  0.13776138  0.13776138       0.023
   0.00000000  0.27552275  0.13776138       0.012
   0.13776138  0.27552275  0.13776138       0.023
   0.27552275  0.27552275  0.13776138       0.023
   0.41328413  0.27552275  0.13776138       0.023
   0.00000000  0.41328413  0.13776138       0.012
   0.13776138  0.41328413  0.13776138       0.023
   0.27552275  0.41328413  0.13776138       0.023
   0.41328413  0.41328413  0.13776138       0.023
   0.00000000  0.00000000  0.27552275       0.006
   0.13776138  0.00000000  0.27552275       0.012
   0.27552275  0.00000000  0.27552275       0.012
   0.41328413  0.00000000  0.27552275       0.012
   0.00000000  0.13776138  0.27552275       0.012
   0.13776138  0.13776138  0.27552275       0.023
   0.27552275  0.13776138  0.27552275       0.023
   0.41328413  0.13776138  0.27552275       0.023
   0.00000000  0.27552275  0.27552275       0.012
   0.13776138  0.27552275  0.27552275       0.023
   0.27552275  0.27552275  0.27552275       0.023
   0.41328413  0.27552275  0.27552275       0.023
   0.00000000  0.41328413  0.27552275       0.012
   0.13776138  0.41328413  0.27552275       0.023
   0.27552275  0.41328413  0.27552275       0.023
   0.41328413  0.41328413  0.27552275       0.023
   0.00000000  0.00000000  0.41328413       0.006
   0.13776138  0.00000000  0.41328413       0.012
   0.27552275  0.00000000  0.41328413       0.012
   0.41328413  0.00000000  0.41328413       0.012
   0.00000000  0.13776138  0.41328413       0.012
   0.13776138  0.13776138  0.41328413       0.023
   0.27552275  0.13776138  0.41328413       0.023
   0.41328413  0.13776138  0.41328413       0.023
   0.00000000  0.27552275  0.41328413       0.012
   0.13776138  0.27552275  0.41328413       0.023
   0.27552275  0.27552275  0.41328413       0.023
   0.41328413  0.27552275  0.41328413       0.023
   0.00000000  0.41328413  0.41328413       0.012
   0.13776138  0.41328413  0.41328413       0.023
   0.27552275  0.41328413  0.41328413       0.023
   0.41328413  0.41328413  0.41328413       0.023

 k-points in reciprocal lattice and weights: k-points                                
   0.00000000  0.00000000  0.00000000       0.003
   0.14285714  0.00000000  0.00000000       0.006
   0.28571429  0.00000000  0.00000000       0.006
   0.42857143  0.00000000  0.00000000       0.006
   0.00000000  0.14285714  0.00000000       0.006
   0.14285714  0.14285714  0.00000000       0.012
   0.28571429  0.14285714  0.00000000       0.012
   0.42857143  0.14285714  0.00000000       0.012
   0.00000000  0.28571429  0.00000000       0.006
   0.14285714  0.28571429  0.00000000       0.012
   0.28571429  0.28571429  0.00000000       0.012
   0.42857143  0.28571429  0.00000000       0.012
   0.00000000  0.42857143  0.00000000       0.006
   0.14285714  0.42857143  0.00000000       0.012
   0.28571429  0.42857143  0.00000000       0.012
   0.42857143  0.42857143  0.00000000       0.012
   0.00000000  0.00000000  0.14285714       0.006
   0.14285714  0.00000000  0.14285714       0.012
   0.28571429  0.00000000  0.14285714       0.012
   0.42857143  0.00000000  0.14285714       0.012
   0.00000000  0.14285714  0.14285714       0.012
   0.14285714  0.14285714  0.14285714       0.023
   0.28571429  0.14285714  0.14285714       0.023
   0.42857143  0.14285714  0.14285714       0.023
   0.00000000  0.28571429  0.14285714       0.012
   0.14285714  0.28571429  0.14285714       0.023
   0.28571429  0.28571429  0.14285714       0.023
   0.42857143  0.28571429  0.14285714       0.023
   0.00000000  0.42857143  0.14285714       0.012
   0.14285714  0.42857143  0.14285714       0.023
   0.28571429  0.42857143  0.14285714       0.023
   0.42857143  0.42857143  0.14285714       0.023
   0.00000000  0.00000000  0.28571429       0.006
   0.14285714  0.00000000  0.28571429       0.012
   0.28571429  0.00000000  0.28571429       0.012
   0.42857143  0.00000000  0.28571429       0.012
   0.00000000  0.14285714  0.28571429       0.012
   0.14285714  0.14285714  0.28571429       0.023
   0.28571429  0.14285714  0.28571429       0.023
   0.42857143  0.14285714  0.28571429       0.023
   0.00000000  0.28571429  0.28571429       0.012
   0.14285714  0.28571429  0.28571429       0.023
   0.28571429  0.28571429  0.28571429       0.023
   0.42857143  0.28571429  0.28571429       0.023
   0.00000000  0.42857143  0.28571429       0.012
   0.14285714  0.42857143  0.28571429       0.023
   0.28571429  0.42857143  0.28571429       0.023
   0.42857143  0.42857143  0.28571429       0.023
   0.00000000  0.00000000  0.42857143       0.006
   0.14285714  0.00000000  0.42857143       0.012
   0.28571429  0.00000000  0.42857143       0.012
   0.42857143  0.00000000  0.42857143       0.012
   0.00000000  0.14285714  0.42857143       0.012
   0.14285714  0.14285714  0.42857143       0.023
   0.28571429  0.14285714  0.42857143       0.023
   0.42857143  0.14285714  0.42857143       0.023
   0.00000000  0.28571429  0.42857143       0.012
   0.14285714  0.28571429  0.42857143       0.023
   0.28571429  0.28571429  0.42857143       0.023
   0.42857143  0.28571429  0.42857143       0.023
   0.00000000  0.42857143  0.42857143       0.012
   0.14285714  0.42857143  0.42857143       0.023
   0.28571429  0.42857143  0.42857143       0.023
   0.42857143  0.42857143  0.42857143       0.023

 position of ions in fractional coordinates (direct lattice) 
   0.24989488  0.26419045  0.26702744
   0.75010512  0.26419045  0.26702744
   0.24989488  0.73580955  0.26702744
   0.75010512  0.73580955  0.26702744
   0.24989488  0.26419045  0.73297256
   0.75010512  0.26419045  0.73297256
   0.24989488  0.73580955  0.73297256
   0.75010512  0.73580955  0.73297256
   0.50000000  0.50000000  0.00000000
   0.00000000  0.50000000  0.00000000
   0.00000000  0.00000000  0.50000000
   0.50000000  0.00000000  0.50000000
   0.50000000  0.50000000  0.50000000
   0.00000000  0.50000000  0.50000000
   0.00000000  0.00000000  0.00000000
   0.50000000  0.00000000  0.00000000

 position of ions in cartesian coordinates  (Angst):
   1.49263744  1.57802575  1.59497126
   4.48042385  1.57802575  1.59497126
   1.49263744  4.39503553  1.59497126
   4.48042385  4.39503553  1.59497126
   1.49263744  1.57802575  4.37809003
   4.48042385  1.57802575  4.37809003
   1.49263744  4.39503553  4.37809003
   4.48042385  4.39503553  4.37809003
   2.98653064  2.98653064  0.00000000
   0.00000000  2.98653064  0.00000000
   0.00000000  0.00000000  2.98653064
   2.98653064  0.00000000  2.98653064
   2.98653064  2.98653064  2.98653064
   0.00000000  2.98653064  2.98653064
   0.00000000  0.00000000  0.00000000
   2.98653064  0.00000000  0.00000000



--------------------------------------------------------------------------------------------------------


 k-point  1 :   0.0000 0.0000 0.0000  plane waves:    6235
 k-point  2 :   0.1429 0.0000 0.0000  plane waves:    6247
 k-point  3 :   0.2857 0.0000 0.0000  plane waves:    6247
 k-point  4 :   0.4286 0.0000 0.0000  plane waves:    6270
 k-point  5 :   0.0000 0.1429 0.0000  plane waves:    6247
 k-point  6 :   0.1429 0.1429 0.0000  plane waves:    6268
 k-point  7 :   0.2857 0.1429 0.0000  plane waves:    6253
 k-point  8 :   0.4286 0.1429 0.0000  plane waves:    6240
 k-point  9 :   0.0000 0.2857 0.0000  plane waves:    6247
 k-point 10 :   0.1429 0.2857 0.0000  plane waves:    6253
 k-point 11 :   0.2857 0.2857 0.0000  plane waves:    6244
 k-point 12 :   0.4286 0.2857 0.0000  plane waves:    6239
 k-point 13 :   0.0000 0.4286 0.0000  plane waves:    6270
 k-point 14 :   0.1429 0.4286 0.0000  plane waves:    6240
 k-point 15 :   0.2857 0.4286 0.0000  plane waves:    6239
 k-point 16 :   0.4286 0.4286 0.0000  plane waves:    6238
 k-point 17 :   0.0000 0.0000 0.1429  plane waves:    6247
 k-point 18 :   0.1429 0.0000 0.1429  plane waves:    6268
 k-point 19 :   0.2857 0.0000 0.1429  plane waves:    6253
 k-point 20 :   0.4286 0.0000 0.1429  plane waves:    6240
 k-point 21 :   0.0000 0.1429 0.1429  plane waves:    6268
 k-point 22 :   0.1429 0.1429 0.1429  plane waves:    6244
 k-point 23 :   0.2857 0.1429 0.1429  plane waves:    6246
 k-point 24 :   0.4286 0.1429 0.1429  plane waves:    6249
 k-point 25 :   0.0000 0.2857 0.1429  plane waves:    6253
 k-point 26 :   0.1429 0.2857 0.1429  plane waves:    6246
 k-point 27 :   0.2857 0.2857 0.1429  plane waves:    6254
 k-point 28 :   0.4286 0.2857 0.1429  plane waves:    6227
 k-point 29 :   0.0000 0.4286 0.1429  plane waves:    6240
 k-point 30 :   0.1429 0.4286 0.1429  plane waves:    6249
 k-point 31 :   0.2857 0.4286 0.1429  plane waves:    6227
 k-point 32 :   0.4286 0.4286 0.1429  plane waves:    6243
 k-point 33 :   0.0000 0.0000 0.2857  plane waves:    6247
 k-point 34 :   0.1429 0.0000 0.2857  plane waves:    6253
 k-point 35 :   0.2857 0.0000 0.2857  plane waves:    6244
 k-point 36 :   0.4286 0.0000 0.2857  plane waves:    6239
 k-point 37 :   0.0000 0.1429 0.2857  plane waves:    6253
 k-point 38 :   0.1429 0.1429 0.2857  plane waves:    6246
 k-point 39 :   0.2857 0.1429 0.2857  plane waves:    6254
 k-point 40 :   0.4286 0.1429 0.2857  plane waves:    6227
 k-point 41 :   0.0000 0.2857 0.2857  plane waves:    6244
 k-point 42 :   0.1429 0.2857 0.2857  plane waves:    6254
 k-point 43 :   0.2857 0.2857 0.2857  plane waves:    6247
 k-point 44 :   0.4286 0.2857 0.2857  plane waves:    6233
 k-point 45 :   0.0000 0.4286 0.2857  plane waves:    6239
 k-point 46 :   0.1429 0.4286 0.2857  plane waves:    6227
 k-point 47 :   0.2857 0.4286 0.2857  plane waves:    6233
 k-point 48 :   0.4286 0.4286 0.2857  plane waves:    6230
 k-point 49 :   0.0000 0.0000 0.4286  plane waves:    6270
 k-point 50 :   0.1429 0.0000 0.4286  plane waves:    6240
 k-point 51 :   0.2857 0.0000 0.4286  plane waves:    6239
 k-point 52 :   0.4286 0.0000 0.4286  plane waves:    6238
 k-point 53 :   0.0000 0.1429 0.4286  plane waves:    6240
 k-point 54 :   0.1429 0.1429 0.4286  plane waves:    6249
 k-point 55 :   0.2857 0.1429 0.4286  plane waves:    6227
 k-point 56 :   0.4286 0.1429 0.4286  plane waves:    6243
 k-point 57 :   0.0000 0.2857 0.4286  plane waves:    6239
 k-point 58 :   0.1429 0.2857 0.4286  plane waves:    6227
 k-point 59 :   0.2857 0.2857 0.4286  plane waves:    6233
 k-point 60 :   0.4286 0.2857 0.4286  plane waves:    6230
 k-point 61 :   0.0000 0.4286 0.4286  plane waves:    6238
 k-point 62 :   0.1429 0.4286 0.4286  plane waves:    6243
 k-point 63 :   0.2857 0.4286 0.4286  plane waves:    6230
 k-point 64 :   0.4286 0.4286 0.4286  plane waves:    6203

 maximum and minimum number of plane-waves per node :      6270     6203

 maximum number of plane-waves:      6270
 maximum index in each direction: 
   IXMAX=   11   IYMAX=   11   IZMAX=   11
   IXMIN=  -11   IYMIN=  -11   IZMIN=  -11


 serial   3D FFT for wavefunctions
 parallel 3D FFT for charge:
    minimum data exchange during FFTs selected (reduces bandwidth)


 total amount of memory used by VASP MPI-rank0   139243. kBytes
=======================================================================

   base      :      30000. kBytes
   nonlr-proj:       6803. kBytes
   fftplans  :       1269. kBytes
   grid      :       6573. kBytes
   one-center:        497. kBytes
   wavefun   :      94101. kBytes

     INWAV:  cpu time    0.0000: real time    0.0000
 Broyden mixing: mesh for mixing (old mesh)
   NGX = 23   NGY = 23   NGZ = 23
  (NGX  = 72   NGY  = 72   NGZ  = 72)
  gives a total of  12167 points

 initial charge density was supplied:
 charge density of overlapping atoms calculated
 number of electron     128.0000000 magnetization      16.8000000
 keeping initial charge density in first step


--------------------------------------------------------------------------------------------------------


 Maximum index for non-local projection operator         3887
 Maximum index for augmentation-charges         2103 (set IRDMAX)


--------------------------------------------------------------------------------------------------------


 First call to EWALD:  gamma=   0.297
 Maximum number of real-space cells 3x 3x 3
 Maximum number of reciprocal cells 3x 3x 3

    FEWALD:  cpu time    0.0021: real time    0.0021


--------------------------------------- Iteration      1(   1)  ---------------------------------------


    POTLOK:  cpu time    0.1066: real time    0.1084
    SETDIJ:  cpu time    0.0370: real time    0.0370
     EDDAV:  cpu time   38.0861: real time   38.2337
       DOS:  cpu time    0.0054: real time    0.0054
    --------------------------------------------
      LOOP:  cpu time   38.2350: real time   38.3845

 eigenvalue-minimisations  : 21504
 total energy-change (2. order) : 0.1065753E+04  (-0.5439443E+04)
 number of electron     128.0000000 magnetization      16.8000000
 augmentation part      128.0000000 magnetization      16.8000000

 Free energy of the ion-electron system (eV)
  ---------------------------------------------------
  alpha Z        PSCENC =       528.02738305
  Ewald energy   TEWEN  =     -9184.42171645
  -Hartree energ DENC   =     -3231.20231612
  -exchange      EXHF   =         0.00000000
  -V(xc)+E(xc)   XCENC  =        78.30638530
  PAW double counting   =     10320.96726947   -10647.99417394
  entropy T*S    EENTRO =        -0.00135322
  eigenvalues    EBANDS =      1972.61004291
  atomic energy  EATOM  =     11229.46195210
  Solvation  Ediel_sol  =         0.00000000
  ---------------------------------------------------
  free energy    TOTEN  =      1065.75347310 eV

  energy without entropy =     1065.75482632  energy(sigma->0) =     1065.75414971


--------------------------------------------------------------------------------------------------------




--------------------------------------- Iteration      1(   2)  ---------------------------------------


     EDDAV:  cpu time   41.7244: real time   41.7928
       DOS:  cpu time    0.0058: real time    0.0058
    --------------------------------------------
      LOOP:  cpu time   41.7302: real time   41.7986

 eigenvalue-minimisations  : 21504
 total energy-change (2. order) :-0.1064267E+04  (-0.1030270E+04)
 number of electron     128.0000000 magnetization      16.8000000
 augmentation part      128.0000000 magnetization      16.8000000

 Free energy of the ion-electron system (eV)
  ---------------------------------------------------
  alpha Z        PSCENC =       528.02738305
  Ewald energy   TEWEN  =     -9184.42171645
  -Hartree energ DENC   =     -3231.20231612
  -exchange      EXHF   =         0.00000000
  -V(xc)+E(xc)   XCENC  =        78.30638530
  PAW double counting   =     10320.96726947   -10647.99417394
  entropy T*S    EENTRO =        -0.00244414
  eigenvalues    EBANDS =       908.34422815
  atomic energy  EATOM  =     11229.46195210
  Solvation  Ediel_sol  =         0.00000000
  ---------------------------------------------------
  free energy    TOTEN  =         1.48656742 eV

  energy without entropy =        1.48901156  energy(sigma->0) =        1.48778949


--------------------------------------------------------------------------------------------------------




--------------------------------------- Iteration      1(   3)  ---------------------------------------


     EDDAV:  cpu time   41.5692: real time   41.6163
       DOS:  cpu time    0.0059: real time    0.0060
    --------------------------------------------
      LOOP:  cpu time   41.5752: real time   41.6223

 eigenvalue-minimisations  : 24048
 total energy-change (2. order) :-0.1105784E+03  (-0.9834718E+02)
 number of electron     128.0000000 magnetization      16.8000000
 augmentation part      128.0000000 magnetization      16.8000000

 Free energy of the ion-electron system (eV)
  ---------------------------------------------------
  alpha Z        PSCENC =       528.02738305
  Ewald energy   TEWEN  =     -9184.42171645
  -Hartree energ DENC   =     -3231.20231612
  -exchange      EXHF   =         0.00000000
  -V(xc)+E(xc)   XCENC  =        78.30638530
  PAW double counting   =     10320.96726947   -10647.99417394
  entropy T*S    EENTRO =        -0.00389155
  eigenvalues    EBANDS =       797.76723510
  atomic energy  EATOM  =     11229.46195210
  Solvation  Ediel_sol  =         0.00000000
  ---------------------------------------------------
  free energy    TOTEN  =      -109.09187305 eV

  energy without entropy =     -109.08798150  energy(sigma->0) =     -109.08992727


--------------------------------------------------------------------------------------------------------




--------------------------------------- Iteration      1(   4)  ---------------------------------------


     EDDAV:  cpu time   58.7132: real time   58.7904
       DOS:  cpu time    0.0061: real time    0.0061
    --------------------------------------------
      LOOP:  cpu time   58.7193: real time   58.7965

 eigenvalue-minimisations  : 32508
 total energy-change (2. order) :-0.7096754E+01  (-0.6584082E+01)
 number of electron     128.0000000 magnetization      16.8000000
 augmentation part      128.0000000 magnetization      16.8000000

 Free energy of the ion-electron system (eV)
  ---------------------------------------------------
  alpha Z        PSCENC =       528.02738305
  Ewald energy   TEWEN  =     -9184.42171645
  -Hartree energ DENC   =     -3231.20231612
  -exchange      EXHF   =         0.00000000
  -V(xc)+E(xc)   XCENC  =        78.30638530
  PAW double counting   =     10320.96726947   -10647.99417394
  entropy T*S    EENTRO =        -0.00408827
  eigenvalues    EBANDS =       790.67067805
  atomic energy  EATOM  =     11229.46195210
  Solvation  Ediel_sol  =         0.00000000
  ---------------------------------------------------
  free energy    TOTEN  =      -116.18862681 eV

  energy without entropy =     -116.18453854  energy(sigma->0) =     -116.18658268


--------------------------------------------------------------------------------------------------------




--------------------------------------- Iteration      1(   5)  ---------------------------------------


     EDDAV:  cpu time   52.1944: real time   52.2581
       DOS:  cpu time    0.0060: real time    0.0060
    CHARGE:  cpu time    1.0254: real time    1.0261
    MIXING:  cpu time    0.0016: real time    0.0016
    --------------------------------------------
      LOOP:  cpu time   53.2275: real time   53.2919

 eigenvalue-minimisations  : 31584
 total energy-change (2. order) :-0.2457071E+00  (-0.2439184E+00)
 number of electron     127.9999741 magnetization      14.2099092
 augmentation part       60.5557999 magnetization       9.1469524

 Broyden mixing:
  rms(total) = 0.34703E+01    rms(broyden)= 0.34702E+01
  rms(prec ) = 0.53362E+01
  weight for this iteration     100.00

 Free energy of the ion-electron system (eV)
  ---------------------------------------------------
  alpha Z        PSCENC =       528.02738305
  Ewald energy   TEWEN  =     -9184.42171645
  -Hartree energ DENC   =     -3231.20231612
  -exchange      EXHF   =         0.00000000
  -V(xc)+E(xc)   XCENC  =        78.30638530
  PAW double counting   =     10320.96726947   -10647.99417394
  entropy T*S    EENTRO =        -0.00400554
  eigenvalues    EBANDS =       790.42488822
  atomic energy  EATOM  =     11229.46195210
  Solvation  Ediel_sol  =         0.00000000
  ---------------------------------------------------
  free energy    TOTEN  =      -116.43433391 eV

  energy without entropy =     -116.43032837  energy(sigma->0) =     -116.43233114


--------------------------------------------------------------------------------------------------------




--------------------------------------- Iteration      1(   6)  ---------------------------------------


    POTLOK:  cpu time    0.1007: real time    0.1015
    SETDIJ:  cpu time    0.0365: real time    0.0365
    EDDIAG:  cpu time    5.3787: real time    5.3838
  RMM-DIIS:  cpu time   17.0233: real time   17.0387
    ORTHCH:  cpu time    1.0361: real time    1.0370
       DOS:  cpu time    0.0060: real time    0.0060
    CHARGE:  cpu time    1.0617: real time    1.0625
    MIXING:  cpu time    0.0017: real time    0.0017
    --------------------------------------------
      LOOP:  cpu time   24.6447: real time   24.6677

 eigenvalue-minimisations  : 21504
 total energy-change (2. order) : 0.6309261E+01  (-0.1665136E+02)
 number of electron     127.9999848 magnetization      14.5541174
 augmentation part       69.7431508 magnetization      10.9833003

 Broyden mixing:
  rms(total) = 0.46605E+01    rms(broyden)= 0.46604E+01
  rms(prec ) = 0.63240E+01
  weight for this iteration     100.00

 eigenvalues of (default mixing * dielectric matrix)
  average eigenvalue GAMMA=   0.2167
  0.2167

 Free energy of the ion-electron system (eV)
  ---------------------------------------------------
  alpha Z        PSCENC =       528.02738305
  Ewald energy   TEWEN  =     -9184.42171645
  -Hartree energ DENC   =     -2993.88247730
  -exchange      EXHF   =         0.00000000
  -V(xc)+E(xc)   XCENC  =        65.89209623
  PAW double counting   =     11097.37854579   -11390.04641328
  entropy T*S    EENTRO =        -0.00642952
  eigenvalues    EBANDS =       537.47198667
  atomic energy  EATOM  =     11229.46195210
  Solvation  Ediel_sol  =         0.00000000
  ---------------------------------------------------
  free energy    TOTEN  =      -110.12507272 eV

  energy without entropy =     -110.11864319  energy(sigma->0) =     -110.12185796


--------------------------------------------------------------------------------------------------------




--------------------------------------- Iteration      1(   7)  ---------------------------------------


    POTLOK:  cpu time    0.0980: real time    0.0981
    SETDIJ:  cpu time    0.0364: real time    0.0364
    EDDIAG:  cpu time    5.4282: real time    5.4334
  RMM-DIIS:  cpu time   16.9727: real time   16.9879
    ORTHCH:  cpu time    1.0406: real time    1.0416
       DOS:  cpu time    0.0061: real time    0.0061
    CHARGE:  cpu time    1.0294: real time    1.0302
    MIXING:  cpu time    0.0017: real time    0.0017
    --------------------------------------------
      LOOP:  cpu time   24.6131: real time   24.6353

 eigenvalue-minimisations  : 21560
 total energy-change (2. order) :-0.1219442E+01  (-0.2706191E+01)
 number of electron     127.9999686 magnetization      14.0306599
 augmentation part       70.1462728 magnetization      10.4647527

 Broyden mixing:
  rms(total) = 0.38925E+01    rms(broyden)= 0.38924E+01
  rms(prec ) = 0.69736E+01
  weight for this iteration     100.00

 eigenvalues of (default mixing * dielectric matrix)
  average eigenvalue GAMMA=   0.3935
  0.3935  0.3935

 Free energy of the ion-electron system (eV)
  ---------------------------------------------------
  alpha Z        PSCENC =       528.02738305
  Ewald energy   TEWEN  =     -9184.42171645
  -Hartree energ DENC   =     -2985.59531325
  -exchange      EXHF   =         0.00000000
  -V(xc)+E(xc)   XCENC  =        66.80250350
  PAW double counting   =     11373.38131387   -11672.17199397
  entropy T*S    EENTRO =        -0.00230028
  eigenvalues    EBANDS =       533.17365650
  atomic energy  EATOM  =     11229.46195210
  Solvation  Ediel_sol  =         0.00000000
  ---------------------------------------------------
  free energy    TOTEN  =      -111.34451492 eV

  energy without entropy =     -111.34221465  energy(sigma->0) =     -111.34336478


--------------------------------------------------------------------------------------------------------




--------------------------------------- Iteration      1(   8)  ---------------------------------------


    POTLOK:  cpu time    0.0985: real time    0.0985
    SETDIJ:  cpu time    0.0363: real time    0.0364
    EDDIAG:  cpu time    5.4452: real time    5.4503
  RMM-DIIS:  cpu time   16.9777: real time   16.9925
    ORTHCH:  cpu time    1.0401: real time    1.0409
       DOS:  cpu time    0.0061: real time    0.0061
    CHARGE:  cpu time    1.0325: real time    1.0333
    MIXING:  cpu time    0.0017: real time    0.0017
    --------------------------------------------
      LOOP:  cpu time   24.6380: real time   24.6598

 eigenvalue-minimisations  : 21504
 total energy-change (2. order) : 0.3283187E+01  (-0.2730424E+01)
 number of electron     127.9999798 magnetization      13.5014033
 augmentation part       68.6460052 magnetization      10.2958722

 Broyden mixing:
  rms(total) = 0.31760E+01    rms(broyden)= 0.31759E+01
  rms(prec ) = 0.60896E+01
  weight for this iteration     100.00

 eigenvalues of (default mixing * dielectric matrix)
  average eigenvalue GAMMA=   0.3892
  0.5064  0.5064  0.1546

 Free energy of the ion-electron system (eV)
  ---------------------------------------------------
  alpha Z        PSCENC =       528.02738305
  Ewald energy   TEWEN  =     -9184.42171645
  -Hartree energ DENC   =     -3035.18008241
  -exchange      EXHF   =         0.00000000
  -V(xc)+E(xc)   XCENC  =        70.07674238
  PAW double counting   =     11697.27009535   -12017.78996026
  entropy T*S    EENTRO =        -0.00344061
  eigenvalues    EBANDS =       604.49769896
  atomic energy  EATOM  =     11229.46195210
  Solvation  Ediel_sol  =         0.00000000
  ---------------------------------------------------
  free energy    TOTEN  =      -108.06132790 eV

  energy without entropy =     -108.05788729  energy(sigma->0) =     -108.05960759


--------------------------------------------------------------------------------------------------------




--------------------------------------- Iteration      1(   9)  ---------------------------------------


    POTLOK:  cpu time    0.1021: real time    0.1027
    SETDIJ:  cpu time    0.0362: real time    0.0362
    EDDIAG:  cpu time    5.4683: real time    5.4733
  RMM-DIIS:  cpu time   17.0512: real time   17.0660
    ORTHCH:  cpu time    1.0440: real time    1.0449
       DOS:  cpu time    0.0061: real time    0.0061
    CHARGE:  cpu time    1.0775: real time    1.0783
    MIXING:  cpu time    0.0018: real time    0.0018
    --------------------------------------------
      LOOP:  cpu time   24.7872: real time   24.8094

 eigenvalue-minimisations  : 21546
 total energy-change (2. order) : 0.4542432E+01  (-0.7410178E+00)
 number of electron     127.9999801 magnetization      14.2513132
 augmentation part       66.8302133 magnetization      10.2660922

 Broyden mixing:
  rms(total) = 0.18397E+01    rms(broyden)= 0.18396E+01
  rms(prec ) = 0.27560E+01
  weight for this iteration     100.00

 eigenvalues of (default mixing * dielectric matrix)
  average eigenvalue GAMMA=   0.4596
  0.9352  0.5247  0.2460  0.1327

 Free energy of the ion-electron system (eV)
  ---------------------------------------------------
  alpha Z        PSCENC =       528.02738305
  Ewald energy   TEWEN  =     -9184.42171645
  -Hartree energ DENC   =     -3053.23886267
  -exchange      EXHF   =         0.00000000
  -V(xc)+E(xc)   XCENC  =        71.20768444
  PAW double counting   =     11888.51288089   -12218.37246421
  entropy T*S    EENTRO =        -0.00379162
  eigenvalues    EBANDS =       635.30803844
  atomic energy  EATOM  =     11229.46195210
  Solvation  Ediel_sol  =         0.00000000
  ---------------------------------------------------
  free energy    TOTEN  =      -103.51889603 eV

  energy without entropy =     -103.51510441  energy(sigma->0) =     -103.51700022


--------------------------------------------------------------------------------------------------------




--------------------------------------- Iteration      1(  10)  ---------------------------------------


    POTLOK:  cpu time    0.0982: real time    0.0983
    SETDIJ:  cpu time    0.0367: real time    0.0368
    EDDIAG:  cpu time    5.5018: real time    5.5069
  RMM-DIIS:  cpu time   17.2373: real time   17.2520
    ORTHCH:  cpu time    1.0417: real time    1.0426
       DOS:  cpu time    9.5261: real time    9.5289
    CHARGE:  cpu time    1.0631: real time    1.0639
    MIXING:  cpu time    0.0020: real time    0.0020
    --------------------------------------------
      LOOP:  cpu time   34.5069: real time   34.5313

 eigenvalue-minimisations  : 21508
 total energy-change (2. order) : 0.8699124E+00  (-0.1882658E+00)
 number of electron     127.9999765 magnetization      14.9570956
 augmentation part       67.6650361 magnetization      10.8066443

 Broyden mixing:
  rms(total) = 0.97053E+00    rms(broyden)= 0.97049E+00
  rms(prec ) = 0.10873E+01
  weight for this iteration     100.00

 eigenvalues of (default mixing * dielectric matrix)
  average eigenvalue GAMMA=   0.4605
  0.9373  0.5029  0.5029  0.2222  0.1372

 Free energy of the ion-electron system (eV)
  ---------------------------------------------------
  alpha Z        PSCENC =       528.02738305
  Ewald energy   TEWEN  =     -9184.42171645
  -Hartree energ DENC   =     -3037.24858912
  -exchange      EXHF   =         0.00000000
  -V(xc)+E(xc)   XCENC  =        71.53558461
  PAW double counting   =     12184.80026734   -12518.20595556
  entropy T*S    EENTRO =        -0.00241317
  eigenvalues    EBANDS =       623.40450358
  atomic energy  EATOM  =     11229.46195210
  Solvation  Ediel_sol  =         0.00000000
  ---------------------------------------------------
  free energy    TOTEN  =      -102.64898362 eV

  energy without entropy =     -102.64657045  energy(sigma->0) =     -102.64777703


--------------------------------------------------------------------------------------------------------




--------------------------------------- Iteration      1(  11)  ---------------------------------------


    POTLOK:  cpu time    0.0985: real time    0.0986
    SETDIJ:  cpu time    0.0364: real time    0.0364
    EDDIAG:  cpu time    5.5319: real time    5.5370
  RMM-DIIS:  cpu time   17.3525: real time   25.0420
    ORTHCH:  cpu time    1.0495: real time    1.0539
       DOS:  cpu time    0.0060: real time    0.0061
    CHARGE:  cpu time    1.0723: real time    1.0756
    MIXING:  cpu time    0.0021: real time    0.0021
    --------------------------------------------
      LOOP:  cpu time   25.1493: real time   32.8517

 eigenvalue-minimisations  : 21738
 total energy-change (2. order) :-0.2713740E+00  (-0.3792597E-01)
 number of electron     127.9999781 magnetization      16.3581574
 augmentation part       67.4229183 magnetization      12.0862052

 Broyden mixing:
  rms(total) = 0.71548E+00    rms(broyden)= 0.71547E+00
  rms(prec ) = 0.79239E+00
  weight for this iteration     100.00

 eigenvalues of (default mixing * dielectric matrix)
  average eigenvalue GAMMA=   0.6202
  1.2259  0.7825  0.7825  0.5893  0.2058  0.1352

 Free energy of the ion-electron system (eV)
  ---------------------------------------------------
  alpha Z        PSCENC =       528.02738305
  Ewald energy   TEWEN  =     -9184.42171645
  -Hartree energ DENC   =     -3038.69267048
  -exchange      EXHF   =         0.00000000
  -V(xc)+E(xc)   XCENC  =        72.91015326
  PAW double counting   =     12321.34920687   -12658.45849772
  entropy T*S    EENTRO =        -0.00341729
  eigenvalues    EBANDS =       626.90724909
  atomic energy  EATOM  =     11229.46195210
  Solvation  Ediel_sol  =         0.00000000
  ---------------------------------------------------
  free energy    TOTEN  =      -102.92035757 eV

  energy without entropy =     -102.91694028  energy(sigma->0) =     -102.91864893


--------------------------------------------------------------------------------------------------------




--------------------------------------- Iteration      1(  12)  ---------------------------------------


    POTLOK:  cpu time    0.1016: real time    0.1043
    SETDIJ:  cpu time    0.0353: real time    0.0359
    EDDIAG:  cpu time    5.5003: real time    5.5233
  RMM-DIIS:  cpu time   17.1976: real time   17.2660
    ORTHCH:  cpu time    1.0380: real time    1.0416
       DOS:  cpu time    0.0059: real time    0.0059
    CHARGE:  cpu time    1.0906: real time    1.0939
    MIXING:  cpu time    0.0022: real time    0.0022
    --------------------------------------------
      LOOP:  cpu time   24.9714: real time   25.0732

 eigenvalue-minimisations  : 21774
 total energy-change (2. order) :-0.3922722E+00  (-0.4967814E-01)
 number of electron     127.9999776 magnetization      17.2809213
 augmentation part       67.6500289 magnetization      13.0858643

 Broyden mixing:
  rms(total) = 0.61240E+00    rms(broyden)= 0.61240E+00
  rms(prec ) = 0.90166E+00
  weight for this iteration     100.00

 eigenvalues of (default mixing * dielectric matrix)
  average eigenvalue GAMMA=   0.6468
  1.7587  0.7914  0.7914  0.5740  0.1352  0.2076  0.2692

 Free energy of the ion-electron system (eV)
  ---------------------------------------------------
  alpha Z        PSCENC =       528.02738305
  Ewald energy   TEWEN  =     -9184.42171645
  -Hartree energ DENC   =     -3032.12675599
  -exchange      EXHF   =         0.00000000
  -V(xc)+E(xc)   XCENC  =        74.33885567
  PAW double counting   =     12544.91380540   -12885.49555773
  entropy T*S    EENTRO =        -0.00283026
  eigenvalues    EBANDS =       621.99223444
  atomic energy  EATOM  =     11229.46195210
  Solvation  Ediel_sol  =         0.00000000
  ---------------------------------------------------
  free energy    TOTEN  =      -103.31262977 eV

  energy without entropy =     -103.30979951  energy(sigma->0) =     -103.31121464


--------------------------------------------------------------------------------------------------------




--------------------------------------- Iteration      1(  13)  ---------------------------------------


    POTLOK:  cpu time    6.1510: real time    6.1595
    SETDIJ:  cpu time    0.0360: real time    0.0362
    EDDIAG:  cpu time    5.5647: real time    5.5723
  RMM-DIIS:  cpu time   17.3243: real time   17.3434
    ORTHCH:  cpu time    1.0537: real time    1.0555
       DOS:  cpu time    0.0061: real time    0.0061
    CHARGE:  cpu time    1.0975: real time    1.0985
    MIXING:  cpu time    0.0023: real time    0.0023
    --------------------------------------------
      LOOP:  cpu time   31.2357: real time   31.2739

 eigenvalue-minimisations  : 21883
 total energy-change (2. order) : 0.4667674E-01  (-0.2367839E-01)
 number of electron     127.9999780 magnetization      17.5070602
 augmentation part       67.6636219 magnetization      13.0554434

 Broyden mixing:
  rms(total) = 0.21165E+00    rms(broyden)= 0.21163E+00
  rms(prec ) = 0.27222E+00
  weight for this iteration     100.00

 eigenvalues of (default mixing * dielectric matrix)
  average eigenvalue GAMMA=   0.6899
  2.0341  0.8829  0.8829  0.5513  0.5513  0.1352  0.2060  0.2752

 Free energy of the ion-electron system (eV)
  ---------------------------------------------------
  alpha Z        PSCENC =       528.02738305
  Ewald energy   TEWEN  =     -9184.42171645
  -Hartree energ DENC   =     -3029.42435753
  -exchange      EXHF   =         0.00000000
  -V(xc)+E(xc)   XCENC  =        75.40848887
  PAW double counting   =     12723.22711239   -13067.01042137
  entropy T*S    EENTRO =        -0.00248825
  eigenvalues    EBANDS =       621.46809413
  atomic energy  EATOM  =     11229.46195210
  Solvation  Ediel_sol  =         0.00000000
  ---------------------------------------------------
  free energy    TOTEN  =      -103.26595303 eV

  energy without entropy =     -103.26346479  energy(sigma->0) =     -103.26470891


--------------------------------------------------------------------------------------------------------




--------------------------------------- Iteration      1(  14)  ---------------------------------------


    POTLOK:  cpu time    0.0989: real time    0.0989
    SETDIJ:  cpu time    0.0362: real time    0.0362
    EDDIAG:  cpu time    5.5917: real time    5.5980
  RMM-DIIS:  cpu time   18.1655: real time   18.1885
    ORTHCH:  cpu time    1.0568: real time    1.0671
       DOS:  cpu time    0.0062: real time    0.0062
    CHARGE:  cpu time    1.1082: real time    1.1092
    MIXING:  cpu time    0.0024: real time    0.0024
    --------------------------------------------
      LOOP:  cpu time   26.0658: real time   26.1065

 eigenvalue-minimisations  : 22621
 total energy-change (2. order) :-0.1172182E-01  (-0.9261196E-02)
 number of electron     127.9999778 magnetization      17.5967809
 augmentation part       67.7318530 magnetization      13.0759325

 Broyden mixing:
  rms(total) = 0.15801E+00    rms(broyden)= 0.15801E+00
  rms(prec ) = 0.23123E+00
  weight for this iteration     100.00

 eigenvalues of (default mixing * dielectric matrix)
  average eigenvalue GAMMA=   0.7033
  2.0831  1.0271  1.0271  0.5971  0.5971  0.1352  0.3795  0.2059  0.2780

 Free energy of the ion-electron system (eV)
  ---------------------------------------------------
  alpha Z        PSCENC =       528.02738305
  Ewald energy   TEWEN  =     -9184.42171645
  -Hartree energ DENC   =     -3027.78454445
  -exchange      EXHF   =         0.00000000
  -V(xc)+E(xc)   XCENC  =        75.40034653
  PAW double counting   =     12782.48720837   -13126.80270631
  entropy T*S    EENTRO =        -0.00229156
  eigenvalues    EBANDS =       620.35669386
  atomic energy  EATOM  =     11229.46195210
  Solvation  Ediel_sol  =         0.00000000
  ---------------------------------------------------
  free energy    TOTEN  =      -103.27767486 eV

  energy without entropy =     -103.27538330  energy(sigma->0) =     -103.27652908


--------------------------------------------------------------------------------------------------------




--------------------------------------- Iteration      1(  15)  ---------------------------------------


    POTLOK:  cpu time    0.0995: real time    0.1001
    SETDIJ:  cpu time    0.0361: real time    0.0362
    EDDIAG:  cpu time    5.6251: real time    5.8557
  RMM-DIIS:  cpu time   17.6929: real time   17.7325
    ORTHCH:  cpu time    1.0489: real time    1.0510
       DOS:  cpu time    0.0056: real time    0.0057
    CHARGE:  cpu time    1.0905: real time    1.0925
    MIXING:  cpu time    0.0026: real time    0.0026
    --------------------------------------------
      LOOP:  cpu time   25.6012: real time   25.8763

 eigenvalue-minimisations  : 22040
 total energy-change (2. order) : 0.5493241E-02  (-0.3788621E-02)
 number of electron     127.9999779 magnetization      17.6225643
 augmentation part       67.6909306 magnetization      13.0938703

 Broyden mixing:
  rms(total) = 0.70428E-01    rms(broyden)= 0.70427E-01
  rms(prec ) = 0.93369E-01
  weight for this iteration     100.00

 eigenvalues of (default mixing * dielectric matrix)
  average eigenvalue GAMMA=   0.7330
  2.2641  1.1123  1.1123  0.6822  0.6822  0.5471  0.1352  0.2058  0.3218  0.2670

 Free energy of the ion-electron system (eV)
  ---------------------------------------------------
  alpha Z        PSCENC =       528.02738305
  Ewald energy   TEWEN  =     -9184.42171645
  -Hartree energ DENC   =     -3028.10804599
  -exchange      EXHF   =         0.00000000
  -V(xc)+E(xc)   XCENC  =        75.43038587
  PAW double counting   =     12815.68005380   -13160.42696830
  entropy T*S    EENTRO =        -0.00240000
  eigenvalues    EBANDS =       621.08717430
  atomic energy  EATOM  =     11229.46195210
  Solvation  Ediel_sol  =         0.00000000
  ---------------------------------------------------
  free energy    TOTEN  =      -103.27218162 eV

  energy without entropy =     -103.26978161  energy(sigma->0) =     -103.27098161


--------------------------------------------------------------------------------------------------------




--------------------------------------- Iteration      1(  16)  ---------------------------------------


    POTLOK:  cpu time    0.0990: real time    0.0993
    SETDIJ:  cpu time    0.0362: real time    0.0363
    EDDIAG:  cpu time    5.6477: real time    5.6626
  RMM-DIIS:  cpu time   19.5647: real time   19.6068
    ORTHCH:  cpu time    1.0508: real time    1.0526
       DOS:  cpu time    0.0060: real time    0.0061
    CHARGE:  cpu time    1.0882: real time    1.0898
    MIXING:  cpu time    0.0028: real time    0.0028
    --------------------------------------------
[...]
         0         1         2         3         4         5         6         7         8         9
 total charge-density along one line

 pseudopotential strength for first ion, spin component:           1
 -1.856   0.004  -0.027  -0.005  -0.000  -2.481   0.004  -0.026
  0.004  -1.852  -0.001   0.002   0.006   0.004  -2.478  -0.001
 -0.027  -0.001  -1.933  -0.005   0.003  -0.026  -0.001  -2.555
 -0.005   0.002  -0.005  -1.856  -0.012  -0.005   0.002  -0.004
 -0.000   0.006   0.003  -0.012  -1.936  -0.000   0.006   0.003
 -2.481   0.004  -0.026  -0.005  -0.000  -3.037   0.004  -0.025
  0.004  -2.478  -0.001   0.002   0.006   0.004  -3.034  -0.001
 -0.026  -0.001  -2.555  -0.004   0.003  -0.025  -0.001  -3.108
 -0.005   0.002  -0.004  -2.482  -0.011  -0.005   0.002  -0.004
 -0.000   0.006   0.003  -0.011  -2.558  -0.000   0.006   0.003
 -0.005  -0.000  -0.001   0.002   0.001  -0.005  -0.000  -0.001
 -0.009  -0.001  -0.002   0.005   0.001  -0.008  -0.001  -0.002
 -0.002  -0.004   0.005   0.001   0.008  -0.001  -0.004   0.004
  0.001  -0.006  -0.011  -0.002   0.000   0.001  -0.006  -0.010
 -0.006   0.001   0.000  -0.004  -0.000  -0.006   0.001   0.000
 -0.002  -0.003   0.005   0.002   0.008  -0.002  -0.003   0.005
  0.002  -0.006  -0.011  -0.002  -0.000   0.002  -0.006  -0.010
 -0.006   0.002   0.000  -0.003  -0.000  -0.006   0.002   0.000
 pseudopotential strength for first ion, spin component:           2
 -1.530   0.002   0.011  -0.009   0.000  -2.172   0.002   0.011
  0.002  -1.530  -0.000   0.005   0.000   0.002  -2.171  -0.000
  0.011  -0.000  -1.450   0.011   0.002   0.011  -0.000  -2.094
 -0.009   0.005   0.011  -1.540   0.018  -0.009   0.005   0.010
  0.000   0.000   0.002   0.018  -1.441   0.000   0.001   0.002
 -2.172   0.002   0.011  -0.009   0.000  -2.743   0.002   0.010
  0.002  -2.171  -0.000   0.005   0.001   0.002  -2.743  -0.000
  0.011  -0.000  -2.094   0.010   0.002   0.010  -0.000  -2.668
 -0.009   0.005   0.010  -2.181   0.018  -0.009   0.005   0.010
  0.000   0.001   0.002   0.018  -2.086   0.000   0.001   0.002
  0.002  -0.001   0.002  -0.004   0.001   0.002  -0.001   0.002
  0.004  -0.002   0.003  -0.008   0.002   0.004  -0.002   0.003
  0.002  -0.013   0.005  -0.001   0.009   0.002  -0.012   0.005
 -0.001  -0.007  -0.013   0.002   0.000  -0.001  -0.007  -0.013
 -0.007  -0.001  -0.000  -0.013   0.001  -0.007  -0.001  -0.000
  0.003  -0.015   0.005  -0.002   0.009   0.002  -0.014   0.005
 -0.002  -0.007  -0.014   0.003   0.000  -0.002  -0.007  -0.014
 -0.007  -0.002  -0.000  -0.015   0.001  -0.007  -0.002  -0.000
 total augmentation occupancy for first ion, spin component:           1
  2.139   0.012  -0.014   0.040   0.003  -0.606  -0.010  -0.000  -0.054  -0.002   0.012   0.001  -0.003   0.001   0.032   0.001
  0.012   2.151   0.018  -0.035   0.008  -0.010  -0.611  -0.012   0.024  -0.003  -0.078   0.030   0.025   0.030  -0.000  -0.013
 -0.014   0.018   2.739   0.034  -0.015  -0.000  -0.011  -1.059  -0.023   0.009  -0.038   0.001   0.028  -0.071  -0.006   0.003
  0.040  -0.035   0.034   2.086   0.028  -0.054   0.024  -0.023  -0.569  -0.024  -0.015  -0.001  -0.003   0.007   0.025  -0.000
  0.003   0.008  -0.015   0.028   2.771  -0.002  -0.003   0.009  -0.024  -1.078   0.001  -0.003   0.046   0.005  -0.003   0.005
 -0.606  -0.010  -0.000  -0.054  -0.002   0.871   0.010   0.005   0.066   0.001  -0.009  -0.001   0.001   0.000  -0.006  -0.000
 -0.010  -0.611  -0.011   0.024  -0.003   0.010   0.871   0.013  -0.017  -0.008   0.049  -0.019   0.004  -0.003   0.001   0.002
 -0.000  -0.012  -1.059  -0.023   0.009   0.005   0.013   1.113   0.017  -0.002   0.024  -0.001  -0.026   0.067   0.004   0.003
 -0.054   0.024  -0.023  -0.569  -0.024   0.066  -0.017   0.017   0.844   0.020   0.010   0.001   0.002  -0.005   0.003   0.000
 -0.002  -0.003   0.009  -0.024  -1.078   0.001  -0.008  -0.002   0.020   1.120  -0.006   0.003  -0.044  -0.003   0.002   0.005
  0.012  -0.078  -0.038  -0.015   0.001  -0.009   0.049   0.024   0.010  -0.006   2.104  -0.273   0.045   0.055   0.001  -0.005
  0.001   0.030   0.001  -0.001  -0.003  -0.001  -0.019  -0.001   0.001   0.003  -0.273   0.045   0.002   0.001   0.000  -0.001
 -0.003   0.025   0.028  -0.003   0.046   0.001   0.004  -0.026   0.002  -0.044   0.045   0.002   0.254  -0.001   0.001  -0.026
  0.001   0.030  -0.071   0.007   0.005   0.000  -0.003   0.067  -0.005  -0.003   0.055   0.001  -0.001   0.258  -0.000  -0.002
  0.032  -0.000  -0.006   0.025  -0.003  -0.006   0.001   0.004   0.003   0.002   0.001   0.000   0.001  -0.000   0.254  -0.000
  0.001  -0.013   0.003  -0.000   0.005  -0.000   0.002   0.003   0.000   0.005  -0.005  -0.001  -0.026  -0.002  -0.000   0.003
 -0.000  -0.012  -0.006   0.000   0.000   0.000   0.002  -0.007  -0.000  -0.000  -0.007  -0.000  -0.002  -0.026  -0.000   0.000
 -0.012  -0.000  -0.000  -0.012   0.000   0.002   0.000   0.000   0.002   0.000  -0.000   0.000  -0.000  -0.000  -0.026   0.000
 total augmentation occupancy for first ion, spin component:           2
  0.650   0.078   0.139   0.003  -0.022  -0.412  -0.069  -0.065  -0.010   0.019   0.039  -0.002   0.033  -0.046  -0.007  -0.001
  0.078   0.574   0.047  -0.110  -0.007  -0.069  -0.352  -0.038   0.099  -0.003  -0.022   0.001  -0.084  -0.004  -0.042   0.002
  0.139   0.047   0.916   0.102  -0.004  -0.066  -0.037  -0.446  -0.064   0.003   0.039   0.005  -0.002   0.039   0.014   0.001
  0.003  -0.110   0.102   0.548   0.146  -0.010   0.099  -0.065  -0.339  -0.082  -0.048   0.001  -0.041   0.041  -0.084   0.002
 -0.022  -0.007  -0.004   0.146   0.958   0.018  -0.003   0.003  -0.081  -0.466  -0.001  -0.000  -0.003   0.001  -0.014   0.003
 -0.412  -0.069  -0.066  -0.010   0.018   0.219   0.058   0.019   0.014  -0.015  -0.025   0.005  -0.019   0.033   0.005   0.002
 -0.069  -0.352  -0.037   0.099  -0.003   0.058   0.173   0.028  -0.084   0.008   0.018  -0.002   0.053   0.003   0.030  -0.005
 -0.065  -0.038  -0.446  -0.065   0.003   0.019   0.028   0.141   0.038  -0.002  -0.026  -0.000   0.002  -0.039  -0.012  -0.001
 -0.010   0.099  -0.064  -0.339  -0.081   0.014  -0.084   0.038   0.169   0.038   0.031  -0.006   0.030  -0.027   0.054  -0.003
  0.019  -0.003   0.003  -0.082  -0.466  -0.015   0.008  -0.002   0.038   0.145   0.002   0.000   0.003  -0.000   0.014  -0.002
  0.039  -0.022   0.039  -0.048  -0.001  -0.025   0.018  -0.026   0.031   0.002  -0.087   0.017   0.001  -0.009   0.005   0.000
 -0.002   0.001   0.005   0.001  -0.000   0.005  -0.002  -0.000  -0.006   0.000   0.017  -0.003   0.000  -0.004   0.002  -0.000
  0.033  -0.084  -0.002  -0.041  -0.003  -0.019   0.053   0.002   0.030   0.003   0.001   0.000  -0.002   0.003  -0.006   0.000
 -0.046  -0.004   0.039   0.041   0.001   0.033   0.003  -0.039  -0.027  -0.000  -0.009  -0.004   0.003  -0.009   0.006  -0.000
 -0.007  -0.042   0.014  -0.084  -0.014   0.005   0.030  -0.012   0.054   0.014   0.005   0.002  -0.006   0.006  -0.001   0.001
 -0.001   0.002   0.001   0.002   0.003   0.002  -0.005  -0.001  -0.003  -0.002   0.000  -0.000   0.000  -0.000   0.001   0.000
  0.001  -0.001  -0.003  -0.002   0.000  -0.002   0.001   0.003   0.003  -0.000  -0.002   0.001   0.000   0.001  -0.001   0.000
 -0.001   0.001  -0.001   0.002  -0.000   0.001  -0.002   0.001  -0.005   0.000   0.001  -0.000   0.001  -0.001   0.000  -0.000


------------------------ aborting loop because EDIFF is reached ----------------------------------------





 total charge     

# of ion       s       p       d       tot
------------------------------------------
    1        0.474   0.422   8.360   9.256
    2        0.475   0.421   8.370   9.265
    3        0.474   0.423   8.366   9.263
    4        0.472   0.426   8.369   9.267
    5        0.472   0.426   8.369   9.267
    6        0.474   0.423   8.366   9.263
    7        0.475   0.421   8.370   9.265
    8        0.474   0.422   8.360   9.256
    9        0.322   0.314   4.915   5.552
   10        0.324   0.311   4.917   5.552
   11        0.329   0.305   4.957   5.592
   12        0.326   0.314   4.938   5.578
   13        0.352   0.355   4.971   5.678
   14        0.350   0.352   4.979   5.680
   15        1.235   1.668   0.287   3.190
   16        1.236   1.667   0.288   3.191
--------------------------------------------------
tot          8.264   8.669  97.184 114.117



 magnetization (x)

# of ion       s       p       d       tot
------------------------------------------
    1       -0.014  -0.008   0.446   0.423
    2       -0.015  -0.007   0.446   0.423
    3       -0.014  -0.009   0.428   0.405
    4       -0.014  -0.004   0.451   0.432
    5       -0.014  -0.004   0.451   0.432
    6       -0.014  -0.009   0.428   0.405
    7       -0.015  -0.007   0.446   0.423
    8       -0.014  -0.008   0.446   0.423
    9       -0.041  -0.046  -3.520  -3.607
   10        0.029   0.031   3.571   3.631
   11        0.031   0.000   3.580   3.612
   12        0.021   0.022   3.565   3.608
   13        0.025   0.017   3.305   3.347
   14        0.018   0.008   3.342   3.368
   15       -0.016  -0.050  -0.003  -0.069
   16        0.002   0.014  -0.008   0.008
--------------------------------------------------
tot         -0.048  -0.061  17.373  17.264

    CHARGE:  cpu time    1.1249: real time    1.1261
    FORLOC:  cpu time    0.0065: real time    0.0065
    FORNL :  cpu time    8.3732: real time    8.3848
    STRESS:  cpu time   25.1432: real time   25.1810
    FORCOR:  cpu time    0.1021: real time    0.1023
    FORHAR:  cpu time    0.0166: real time    0.0166
    MIXING:  cpu time    0.0017: real time    0.0017
    OFIELD:  cpu time    0.0000: real time    0.0000

  FORCE on cell =-STRESS in cart. coord.  units (eV):
  Direction    XX          YY          ZZ          XY          YZ          ZX
  --------------------------------------------------------------------------------------
  Alpha Z   528.02738   528.02738   528.02738
  Ewald   -2822.11173 -3152.01983 -3210.46968    -0.00000    -0.00000    -0.00000
  Hartree  1238.06473   922.64833   866.55156    -0.00000    -0.00000    -0.00000
  E(xc)    -670.31131  -670.61432  -670.15853    -0.00000    -0.00000    -0.00000
  Local    -768.11253  -126.41493    -5.50799    -0.00000    -0.00000     0.00000
  n-local  -148.20885  -147.19699  -148.62387    -0.28384    -0.24640    -0.19854
  augment  1579.87191  1581.04828  1577.71810     0.00000     0.00000    -0.00000
  Kinetic  1061.49260  1063.54958  1059.77756     0.29016     0.45210     0.49991
  Fock        0.00000     0.00000     0.00000     0.00000     0.00000     0.00000
  -------------------------------------------------------------------------------------
  Total      -1.28778    -0.97248    -2.68545     0.00000     0.00000     0.00000
  in kB      -9.68194    -7.31143   -20.18998     0.00000     0.00000     0.00000
  external pressure =      -12.39 kB  Pullay stress =        0.00 kB


 VOLUME and BASIS-vectors are now :
 -----------------------------------------------------------------------------
  energy-cutoff  :      550.00
  volume of cell :      213.10
      direct lattice vectors                 reciprocal lattice vectors
     5.973061283  0.000000000  0.000000000     0.167418339  0.000000000  0.000000000
     0.000000000  5.973061283  0.000000000     0.000000000  0.167418339  0.000000000
     0.000000000  0.000000000  5.973061283     0.000000000  0.000000000  0.167418339

  length of vectors
     5.973061283  5.973061283  5.973061283     0.167418339  0.167418339  0.167418339


 FORCES acting on ions
    electron-ion (+dipol)            ewald-force                    non-local-force                 convergence-correction
 -----------------------------------------------------------------------------------------------
   -.201E+00 0.148E+03 0.165E+03   0.188E+00 -.146E+03 -.162E+03   0.163E-01 -.227E+01 -.254E+01   0.198E-02 -.121E-01 0.354E-02
   0.201E+00 0.148E+03 0.165E+03   -.188E+00 -.146E+03 -.162E+03   -.163E-01 -.227E+01 -.254E+01   -.198E-02 -.121E-01 0.354E-02
   -.201E+00 -.148E+03 0.165E+03   0.188E+00 0.146E+03 -.162E+03   0.163E-01 0.227E+01 -.254E+01   0.198E-02 0.121E-01 0.354E-02
   0.201E+00 -.148E+03 0.165E+03   -.188E+00 0.146E+03 -.162E+03   -.163E-01 0.227E+01 -.254E+01   -.198E-02 0.121E-01 0.354E-02
   -.201E+00 0.148E+03 -.165E+03   0.188E+00 -.146E+03 0.162E+03   0.163E-01 -.227E+01 0.254E+01   0.198E-02 -.121E-01 -.354E-02
   0.201E+00 0.148E+03 -.165E+03   -.188E+00 -.146E+03 0.162E+03   -.163E-01 -.227E+01 0.254E+01   -.198E-02 -.121E-01 -.354E-02
   -.201E+00 -.148E+03 -.165E+03   0.188E+00 0.146E+03 0.162E+03   0.163E-01 0.227E+01 0.254E+01   0.198E-02 0.121E-01 -.354E-02
   0.201E+00 -.148E+03 -.165E+03   -.188E+00 0.146E+03 0.162E+03   -.163E-01 0.227E+01 0.254E+01   -.198E-02 0.121E-01 -.354E-02
   0.213E-12 0.146E-11 0.126E-11   -.313E-14 -.361E-14 0.145E-13   0.000E+00 0.000E+00 0.000E+00   0.896E-12 0.221E-12 0.754E-12
   -.137E-13 0.210E-12 -.568E-13   -.152E-13 0.178E-13 -.423E-13   0.000E+00 0.000E+00 0.000E+00   -.859E-12 0.232E-12 0.740E-12
   -.157E-13 -.289E-13 0.212E-12   -.375E-14 0.566E-13 0.270E-13   0.000E+00 0.000E+00 0.000E+00   0.119E-11 0.240E-12 -.385E-12
   0.211E-12 -.257E-13 0.266E-11   -.385E-13 0.283E-13 -.851E-14   0.000E+00 0.000E+00 0.000E+00   -.114E-11 0.237E-12 -.391E-12
   0.203E-12 0.307E-12 0.120E-11   -.113E-12 -.872E-13 -.100E-12   0.000E+00 0.000E+00 0.000E+00   -.132E-11 0.200E-12 0.701E-13
   -.198E-13 0.199E-12 0.197E-12   -.400E-13 0.266E-13 0.563E-13   0.000E+00 0.000E+00 0.000E+00   0.137E-11 0.216E-12 0.751E-13
   -.163E-13 -.508E-14 -.209E-13   -.174E-15 -.120E-13 -.188E-14   0.000E+00 0.000E+00 0.000E+00   -.248E-12 0.400E-13 0.279E-12
   0.627E-14 0.419E-13 0.539E-12   0.185E-13 -.491E-14 0.166E-14   0.000E+00 0.000E+00 0.000E+00   0.253E-12 0.404E-13 0.281E-12
 -----------------------------------------------------------------------------------------------
   0.141E-10 0.156E-10 0.104E-09   -.343E-16 0.785E-13 -.532E-13   0.208E-16 0.000E+00 0.000E+00   -.185E-11 -.273E-11 -.411E-10


 POSITION                                       TOTAL-FORCE (eV/Angst)
 -----------------------------------------------------------------------------------
      1.49306      1.57761      1.59523         0.005484     -0.005490      0.003873
      4.48000      1.57761      1.59523        -0.005484     -0.005490      0.003873
      1.49306      4.39546      1.59523         0.005484      0.005490      0.003873
      4.48000      4.39546      1.59523        -0.005484      0.005490      0.003873
      1.49306      1.57761      4.37783         0.005484     -0.005490     -0.003873
      4.48000      1.57761      4.37783        -0.005484     -0.005490     -0.003873
      1.49306      4.39546      4.37783         0.005484      0.005490     -0.003873
      4.48000      4.39546      4.37783        -0.005484      0.005490     -0.003873
      2.98653      2.98653     -0.00000         0.000000      0.000000     -0.000000
      0.00000      2.98653     -0.00000         0.000000      0.000000     -0.000000
      0.00000      0.00000      2.98653         0.000000      0.000000     -0.000000
      2.98653      0.00000      2.98653         0.000000      0.000000     -0.000000
      2.98653      2.98653      2.98653         0.000000      0.000000     -0.000000
      0.00000      2.98653      2.98653         0.000000      0.000000     -0.000000
      0.00000      0.00000     -0.00000         0.000000      0.000000     -0.000000
      2.98653      0.00000     -0.00000         0.000000      0.000000     -0.000000
 -----------------------------------------------------------------------------------
    total drift:                                0.000000      0.000000      0.000000


--------------------------------------------------------------------------------------------------------



  FREE ENERGIE OF THE ION-ELECTRON SYSTEM (eV)
  ---------------------------------------------------
  free  energy   TOTEN  =      -103.27337259 eV

  energy  without entropy=     -103.27096058  energy(sigma->0) =     -103.27216658

 d Force = 0.5736223E-04[ 0.450E-04, 0.698E-04]  d Energy = 0.6365003E-04-0.629E-05
 d Force = 0.1511755E+00[ 0.150E+00, 0.153E+00]  d Ewald  = 0.1511755E+00-0.848E-09


--------------------------------------------------------------------------------------------------------


    POTLOK:  cpu time    0.1381: real time    0.1383


--------------------------------------------------------------------------------------------------------


 Steepest descent step on ions:
 trial-energy change:   -0.000064  1 .order   -0.000057   -0.000070   -0.000045
  (g-gl).g = 0.698E-04      g.g   = 0.698E-04  gl.gl    = 0.000E+00
 g(Force)  = 0.698E-04   g(Stress)= 0.000E+00 ortho     = 0.000E+00
 gamma     =   0.00000
 trial     =   1.00000
 opt step  =   2.81155  (harmonic =   2.81155) maximal distance =0.00118000
 next E    =  -103.273407   (d E  =  -0.00010)


--------------------------------------------------------------------------------------------------------


  
 reached required accuracy - stopping structural energy minimisation
     LOOP+:  cpu time  148.1062: real time  148.3707
    4ORBIT:  cpu time    0.0000: real time    0.0000



 total charge     

# of ion       s       p       d       tot
------------------------------------------
    1        0.474   0.422   8.360   9.256
    2        0.475   0.421   8.370   9.265
    3        0.474   0.423   8.366   9.263
    4        0.472   0.426   8.369   9.267
    5        0.472   0.426   8.369   9.267
    6        0.474   0.423   8.366   9.263
    7        0.475   0.421   8.370   9.265
    8        0.474   0.422   8.360   9.256
    9        0.322   0.314   4.915   5.552
   10        0.324   0.311   4.917   5.552
   11        0.329   0.305   4.957   5.592
   12        0.326   0.314   4.938   5.578
   13        0.352   0.355   4.971   5.678
   14        0.350   0.352   4.979   5.680
   15        1.235   1.668   0.287   3.190
   16        1.236   1.667   0.288   3.191
--------------------------------------------------
tot          8.264   8.669  97.184 114.117



 magnetization (x)

# of ion       s       p       d       tot
------------------------------------------
    1       -0.014  -0.008   0.446   0.423
    2       -0.015  -0.007   0.446   0.423
    3       -0.014  -0.009   0.428   0.405
    4       -0.014  -0.004   0.451   0.432
    5       -0.014  -0.004   0.451   0.432
    6       -0.014  -0.009   0.428   0.405
    7       -0.015  -0.007   0.446   0.423
    8       -0.014  -0.008   0.446   0.423
    9       -0.041  -0.046  -3.520  -3.607
   10        0.029   0.031   3.571   3.631
   11        0.031   0.000   3.580   3.612
   12        0.021   0.022   3.565   3.608
   13        0.025   0.017   3.305   3.347
   14        0.018   0.008   3.342   3.368
   15       -0.016  -0.050  -0.003  -0.069
   16        0.002   0.014  -0.008   0.008
--------------------------------------------------
tot         -0.048  -0.061  17.373  17.264


 total amount of memory used by VASP MPI-rank0   139243. kBytes
=======================================================================

   base      :      30000. kBytes
   nonlr-proj:       6803. kBytes
   fftplans  :       1269. kBytes
   grid      :       6573. kBytes
   one-center:        497. kBytes
   wavefun   :      94101. kBytes

  
  
 General timing and accounting informations for this job:
 ========================================================
  
                  Total CPU time used (sec):      853.981
                            User time (sec):      810.141
                          System time (sec):       43.839
                         Elapsed time (sec):      865.033
  
                   Maximum memory used (kb):      184280.
                   Average memory used (kb):           0.
  
                          Minor page faults:     19938289
                          Major page faults:           21
                 Voluntary context switches:         2423
