 vasp.5.4.4.18Apr17-6-g9f103f2a35 (build May 21 2018 20:56:50) complex           
 executed on             LinuxGNU date 2021.10.15  15:42:03
 running on   12 total cores
 distrk:  each k-point on   12 cores,    1 groups
 distr:  one band on NCORES_PER_BAND=   1 cores,   12 groups


--------------------------------------------------------------------------------------------------------


 INCAR:
 POTCAR:    PAW_PBE Ni 02Aug2007                  
 POTCAR:    PAW_PBE Mn 06Sep2000                  
 POTCAR:    PAW_PBE In 08Apr2002                  

 ----------------------------------------------------------------------------- 
|                                                                             |
|           W    W    AA    RRRRR   N    N  II  N    N   GGGG   !!!           |
|           W    W   A  A   R    R  NN   N  II  NN   N  G    G  !!!           |
|           W    W  A    A  R    R  N N  N  II  N N  N  G       !!!           |
|           W WW W  AAAAAA  RRRRR   N  N N  II  N  N N  G  GGG   !            |
|           WW  WW  A    A  R   R   N   NN  II  N   NN  G    G                |
|           W    W  A    A  R    R  N    N  II  N    N   GGGG   !!!           |
|                                                                             |
|      For optimal performance we recommend to set                            |
|        NCORE= 4 - approx SQRT( number of cores)                             |
|      NCORE specifies how many cores store one orbital (NPAR=cpu/NCORE).     |
|      This setting can  greatly improve the performance of VASP for DFT.     |
|      The default,   NCORE=1            might be grossly inefficient         |
|      on modern multi-core architectures or massively parallel machines.     |
|      Do your own testing !!!!                                               |
|      Unfortunately you need to use the default for GW and RPA calculations. |
|      (for HF NCORE is supported but not extensively tested yet)             |
|                                                                             |
 ----------------------------------------------------------------------------- 

 POTCAR:    PAW_PBE Ni 02Aug2007                  
   VRHFIN =Ni:                                                                  
   LEXCH  = PE                                                                  
   EATOM  =  1077.6739 eV,   79.2068 Ry                                         
                                                                                
   TITEL  = PAW_PBE Ni 02Aug2007                                                
   LULTRA =        F    use ultrasoft PP ?                                      
   IUNSCR =        1    unscreen: 0-lin 1-nonlin 2-no                           
   RPACOR =    2.000    partial core radius                                     
   POMASS =   58.690; ZVAL   =   10.000    mass and valenz                      
   RCORE  =    2.300    outmost cutoff radius                                   
   RWIGS  =    2.430; RWIGS  =    1.286    wigner-seitz radius (au A)           
   ENMAX  =  269.532; ENMIN  =  202.149 eV                                      
   RCLOC  =    1.201    cutoff for local pot                                    
   LCOR   =        T    correct aug charges                                     
   LPAW   =        T    paw PP                                                  
   EAUG   =  544.565                                                            
   DEXC   =    0.000                                                            
   RMAX   =    2.357    core radius for proj-oper                               
   RAUG   =    1.300    factor for augmentation sphere                          
   RDEP   =    2.390    radius for radial grids                                 
   RDEPT  =    1.838    core radius for aug-charge                              
                                                                                
   Atomic configuration                                                         
    9 entries                                                                   
     n  l   j            E        occ.                                          
     1  0  0.50     -8206.4253   2.0000                                         
     2  0  0.50      -976.1748   2.0000                                         
     2  1  1.50      -839.0571   6.0000                                         
     3  0  0.50      -105.9991   2.0000                                         
     3  1  1.50       -66.4603   6.0000                                         
     3  2  2.50        -4.6458   9.0000                                         
     4  0  0.50        -4.4926   1.0000                                         
     4  1  1.50        -4.0817   0.0000                                         
     4  3  2.50        -1.3606   0.0000                                         
   Description                                                                  
     l       E           TYP  RCUT    TYP  RCUT                                 
     2     -4.6457903     23  2.300                                             
     2     -6.0063729     23  2.300                                             
     0     -4.4925590     23  2.300                                             
     0      5.0102601     23  2.300                                             
     1     -2.7211652     23  2.300                                             
     1     16.5183231     23  2.300                                             
  local pseudopotential read in
  partial core-charges read in
  partial kinetic energy density read in
  atomic valenz-charges read in
  non local Contribution for L=           2  read in
    real space projection operators read in
  non local Contribution for L=           2  read in
    real space projection operators read in
  non local Contribution for L=           0  read in
    real space projection operators read in
  non local Contribution for L=           0  read in
    real space projection operators read in
  non local Contribution for L=           1  read in
    real space projection operators read in
  non local Contribution for L=           1  read in
    real space projection operators read in
    PAW grid and wavefunctions read in

   number of l-projection  operators is LMAX  =           6
   number of lm-projection operators is LMMAX =          18

 POTCAR:    PAW_PBE Mn 06Sep2000                  
   VRHFIN =Mn: d6 s1                                                            
   LEXCH  = PE                                                                  
   EATOM  =   416.7541 eV,   30.6306 Ry                                         
                                                                                
   TITEL  = PAW_PBE Mn 06Sep2000                                                
   LULTRA =        F    use ultrasoft PP ?                                      
   IUNSCR =        1    unscreen: 0-lin 1-nonlin 2-no                           
   RPACOR =    2.000    partial core radius                                     
   POMASS =   54.938; ZVAL   =    7.000    mass and valenz                      
   RCORE  =    2.300    outmost cutoff radius                                   
   RWIGS  =    2.500; RWIGS  =    1.323    wigner-seitz radius (au A)           
   ENMAX  =  269.864; ENMIN  =  202.398 eV                                      
   RCLOC  =    1.725    cutoff for local pot                                    
   LCOR   =        T    correct aug charges                                     
   LPAW   =        T    paw PP                                                  
   EAUG   =  500.711                                                            
   DEXC   =    0.000                                                            
   RMAX   =    2.343    core radius for proj-oper                               
   RAUG   =    1.300    factor for augmentation sphere                          
   RDEP   =    2.338    radius for radial grids                                 
   RDEPT  =    1.911    core radius for aug-charge                              
                                                                                
   Atomic configuration                                                         
    9 entries                                                                   
     n  l   j            E        occ.                                          
     1  0  0.50     -6424.8288   2.0000                                         
     2  0  0.50      -739.1154   2.0000                                         
     2  1  1.50      -625.3949   6.0000                                         
     3  0  0.50       -81.6100   2.0000                                         
     3  1  1.50       -50.4667   6.0000                                         
     3  2  2.50        -3.3745   6.0000                                         
     4  0  0.50        -4.1331   1.0000                                         
     4  1  0.50        -4.0817   0.0000                                         
     4  3  2.50        -1.3606   0.0000                                         
   Description                                                                  
     l       E           TYP  RCUT    TYP  RCUT                                 
     2     -3.3744664     23  2.300                                             
     2     -4.7350490     23  2.300                                             
     0     -4.1331408     23  2.300                                             
     0      7.6656614     23  2.300                                             
     1     -2.7211652     23  2.300                                             
     1     20.4087390     23  2.300                                             
  local pseudopotential read in
  partial core-charges read in
  partial kinetic energy density read in
  atomic valenz-charges read in
  non local Contribution for L=           2  read in
    real space projection operators read in
  non local Contribution for L=           2  read in
    real space projection operators read in
  non local Contribution for L=           0  read in
    real space projection operators read in
  non local Contribution for L=           0  read in
    real space projection operators read in
  non local Contribution for L=           1  read in
    real space projection operators read in
  non local Contribution for L=           1  read in
    real space projection operators read in
    PAW grid and wavefunctions read in

   number of l-projection  operators is LMAX  =           6
   number of lm-projection operators is LMMAX =          18

 POTCAR:    PAW_PBE In 08Apr2002                  
   VRHFIN =In: s2p1                                                             
   LEXCH  = PE                                                                  
   EATOM  =    53.7908 eV,    3.9535 Ry                                         
                                                                                
   TITEL  = PAW_PBE In 08Apr2002                                                
   LULTRA =        F    use ultrasoft PP ?                                      
   IUNSCR =        1    unscreen: 0-lin 1-nonlin 2-no                           
   RPACOR =    2.400    partial core radius                                     
   POMASS =  114.820; ZVAL   =    3.000    mass and valenz                      
   RCORE  =    3.100    outmost cutoff radius                                   
   RWIGS  =    3.170; RWIGS  =    1.677    wigner-seitz radius (au A)           
   ENMAX  =   95.934; ENMIN  =   71.951 eV                                      
   ICORE  =        3    local potential                                         
   LCOR   =        T    correct aug charges                                     
   LPAW   =        T    paw PP                                                  
   EAUG   =  237.125                                                            
   DEXC   =    0.000                                                            
   RMAX   =    3.168    core radius for proj-oper                               
   RAUG   =    1.300    factor for augmentation sphere                          
   RDEP   =    3.187    radius for radial grids                                 
   RDEPT  =    2.711    core radius for aug-charge                              
                                                                                
   Atomic configuration                                                         
   13 entries                                                                   
     n  l   j            E        occ.                                          
     1  0  0.50    -27747.9169   2.0000                                         
     2  0  0.50     -4154.4438   2.0000                                         
     2  1  1.50     -3728.4305   6.0000                                         
     3  0  0.50      -788.3680   2.0000                                         
     3  1  1.50      -648.9215   6.0000                                         
     3  2  2.50      -432.5893  10.0000                                         
     4  0  0.50      -119.6363   2.0000                                         
     4  1  1.50       -78.1086   6.0000                                         
     4  2  2.50       -18.6227  10.0000                                         
     5  0  0.50        -8.2107   2.0000                                         
     5  1  0.50        -2.5185   1.0000                                         
     5  2  2.50        -1.3606   0.0000                                         
     4  3  2.50        -2.7212   0.0000                                         
   Description                                                                  
     l       E           TYP  RCUT    TYP  RCUT                                 
     0     -8.2107306     23  3.100                                             
     0     -6.1485975     23  3.100                                             
     1     -2.5184867     23  3.100                                             
     1      3.2427302     23  3.100                                             
     2     -1.3605826     23  3.100                                             
     3     -1.3605826     23  3.100                                             
  local pseudopotential read in
  partial core-charges read in
  partial kinetic energy density read in
  atomic valenz-charges read in
  non local Contribution for L=           0  read in
    real space projection operators read in
  non local Contribution for L=           0  read in
    real space projection operators read in
  non local Contribution for L=           1  read in
    real space projection operators read in
  non local Contribution for L=           1  read in
    real space projection operators read in
  non local Contribution for L=           2  read in
    real space projection operators read in
    PAW grid and wavefunctions read in

   number of l-projection  operators is LMAX  =           5
   number of lm-projection operators is LMMAX =          13

 Optimization of the real space projectors (new method)

 maximal supplied QI-value         = 16.25
 optimisation between [QCUT,QGAM] = [ 11.86, 23.89] = [ 39.41,159.82] Ry 
 Optimized for a Real-space Cutoff    1.33 Angstroem

   l    n(q)    QCUT    max X(q) W(low)/X(q) W(high)/X(q)  e(spline) 
   2      9    11.864    60.317    0.21E-03    0.51E-03    0.25E-06
   2      9    11.864    55.921    0.21E-03    0.51E-03    0.26E-06
   0      9    11.864    51.690    0.22E-03    0.30E-04    0.17E-06
   0      9    11.864    30.015    0.20E-03    0.28E-04    0.15E-06
   1      9    11.864    18.849    0.76E-04    0.33E-03    0.17E-06
   1      9    11.864    14.624    0.60E-04    0.28E-03    0.15E-06
 Optimization of the real space projectors (new method)

 maximal supplied QI-value         = 16.25
 optimisation between [QCUT,QGAM] = [ 11.86, 23.89] = [ 39.41,159.82] Ry 
 Optimized for a Real-space Cutoff    1.36 Angstroem

   l    n(q)    QCUT    max X(q) W(low)/X(q) W(high)/X(q)  e(spline) 
   2      9    11.864   110.144    0.49E-03    0.50E-03    0.21E-06
   2      9    11.864   103.200    0.49E-03    0.51E-03    0.22E-06
   0     10    11.864    68.437    0.12E-03    0.41E-04    0.21E-06
   0     10    11.864    33.971    0.11E-03    0.36E-04    0.19E-06
   1      9    11.864    17.065    0.24E-03    0.26E-03    0.93E-07
   1      9    11.864    12.540    0.19E-03    0.20E-03    0.80E-07
 Optimization of the real space projectors (new method)

 maximal supplied QI-value         = 12.09
 optimisation between [QCUT,QGAM] = [ 11.97, 23.95] = [ 40.14,160.58] Ry 
 Optimized for a Real-space Cutoff    1.63 Angstroem

   l    n(q)    QCUT    max X(q) W(low)/X(q) W(high)/X(q)  e(spline) 
   0     12    11.973   106.980    0.33E-03    0.16E-03    0.25E-05
   0     12    11.973    81.086    0.37E-03    0.18E-03    0.28E-05
   1     11    11.973    53.097    0.22E-03    0.42E-03    0.40E-05
   1     11    11.973    32.621    0.20E-03    0.40E-03    0.37E-05
   2     11    11.973     8.820    0.30E-03    0.17E-03    0.41E-06
  PAW_PBE Ni 02Aug2007                  :
 energy of atom  1       EATOM=-1077.6739
 kinetic energy error for atom=    0.0027 (will be added to EATOM!!)
  PAW_PBE Mn 06Sep2000                  :
 energy of atom  2       EATOM= -416.7541
 kinetic energy error for atom=    0.0022 (will be added to EATOM!!)
  PAW_PBE In 08Apr2002                  :
 energy of atom  3       EATOM=  -53.7908
 kinetic energy error for atom=    0.0000 (will be added to EATOM!!)


 POSCAR: Ni2MnIn                                 
  positions in direct lattice
  velocities in cartesian coordinates
 exchange correlation table for  LEXCH =        8
   RHO(1)=    0.500       N(1)  =     2000
   RHO(2)=  100.500       N(2)  =     4000



--------------------------------------------------------------------------------------------------------


 ion  position               nearest neighbor table
   1  0.253  0.269  0.265-  13 2.45  14 2.48   9 2.56  10 2.58  12 2.59  11 2.61  16 2.69  15 2.71
                             3 2.75   5 2.80   2 2.94   2 3.02
   2  0.747  0.269  0.265-  13 2.45  14 2.48   9 2.56  10 2.58  12 2.59  11 2.61  16 2.69  15 2.71
                             4 2.75   6 2.80   1 2.94   1 3.02
   3  0.253  0.731  0.265-  13 2.45  14 2.48   9 2.56  10 2.58  12 2.59  11 2.61  16 2.69  15 2.71
                             1 2.75   7 2.80   4 2.94   4 3.02
   4  0.747  0.731  0.265-  13 2.45  14 2.48   9 2.56  10 2.58  12 2.59  11 2.61  16 2.69  15 2.71
                             2 2.75   8 2.80   3 2.94   3 3.02
   5  0.253  0.269  0.735-  13 2.45  14 2.48   9 2.56  10 2.58  12 2.59  11 2.61  16 2.69  15 2.71
                             7 2.75   1 2.80   6 2.94   6 3.02
   6  0.747  0.269  0.735-  13 2.45  14 2.48   9 2.56  10 2.58  12 2.59  11 2.61  16 2.69  15 2.71
                             8 2.75   2 2.80   5 2.94   5 3.02
   7  0.253  0.731  0.735-  13 2.45  14 2.48   9 2.56  10 2.58  12 2.59  11 2.61  16 2.69  15 2.71
                             5 2.75   3 2.80   8 2.94   8 3.02
   8  0.747  0.731  0.735-  13 2.45  14 2.48   9 2.56  10 2.58  12 2.59  11 2.61  16 2.69  15 2.71
                             6 2.75   4 2.80   7 2.94   7 3.02
   9  0.500  0.500  0.000-   1 2.56   2 2.56   3 2.56   4 2.56   5 2.56   6 2.56   7 2.56   8 2.56
                            10 2.98  13 2.98  16 2.98  13 2.98  16 2.98  10 2.98
  10  0.000  0.500  0.000-   1 2.58   2 2.58   3 2.58   4 2.58   5 2.58   6 2.58   7 2.58   8 2.58
                             9 2.98  14 2.98  15 2.98  14 2.98  15 2.98   9 2.98
  11  0.000  0.000  0.500-   1 2.61   2 2.61   3 2.61   4 2.61   5 2.61   6 2.61   7 2.61   8 2.61
                            12 2.98  14 2.98  15 2.98  15 2.98  14 2.98  12 2.98
  12  0.500  0.000  0.500-   1 2.59   2 2.59   3 2.59   4 2.59   5 2.59   6 2.59   7 2.59   8 2.59
                            11 2.98  13 2.98  16 2.98  16 2.98  13 2.98  11 2.98
  13  0.500  0.500  0.500-   1 2.45   2 2.45   3 2.45   4 2.45   5 2.45   6 2.45   7 2.45   8 2.45
                             9 2.98  12 2.98  14 2.98   9 2.98  12 2.98  14 2.98
  14  0.000  0.500  0.500-   1 2.48   2 2.48   3 2.48   4 2.48   5 2.48   6 2.48   7 2.48   8 2.48
                            10 2.98  11 2.98  13 2.98  10 2.98  11 2.98  13 2.98
  15  0.000  0.000  0.000-   1 2.71   2 2.71   3 2.71   4 2.71   5 2.71   6 2.71   7 2.71   8 2.71
                            10 2.98  11 2.98  16 2.98  11 2.98  10 2.98  16 2.98
  16  0.500  0.000  0.000-   1 2.69   2 2.69   3 2.69   4 2.69   5 2.69   6 2.69   7 2.69   8 2.69
                             9 2.98  12 2.98  15 2.98  12 2.98   9 2.98  15 2.98

  LATTYP: Found a simple cubic cell.
 ALAT       =     5.9619181101
  
  Lattice vectors:
  
 A1 = (   5.9619181101,   0.0000000000,   0.0000000000)
 A2 = (   0.0000000000,   5.9619181101,   0.0000000000)
 A3 = (   0.0000000000,   0.0000000000,   5.9619181101)


Analysis of symmetry for initial positions (statically):
=====================================================================
 Subroutine PRICEL returns:
 Original cell was already a primitive cell.
 

 Routine SETGRP: Setting up the symmetry group for a 
 simple cubic supercell.


 Subroutine GETGRP returns: Found  8 space group operations
 (whereof  8 operations were pure point group operations)
 out of a pool of 48 trial point group operations.


The static configuration has the point symmetry D_2h.


Analysis of symmetry for dynamics (positions and initial velocities):
=====================================================================
 Subroutine PRICEL returns:
 Original cell was already a primitive cell.
 

 Routine SETGRP: Setting up the symmetry group for a 
 simple cubic supercell.


 Subroutine GETGRP returns: Found  8 space group operations
 (whereof  8 operations were pure point group operations)
 out of a pool of 48 trial point group operations.


The dynamic configuration has the point symmetry D_2h.


Analysis of structural, dynamic, and magnetic symmetry:
=====================================================================
 Subroutine PRICEL returns:
 Original cell was already a primitive cell.
 

 Routine SETGRP: Setting up the symmetry group for a 
 simple cubic supercell.


 Subroutine GETGRP returns: Found  8 space group operations
 (whereof  8 operations were pure point group operations)
 out of a pool of 48 trial point group operations.


The magnetic configuration has the point symmetry D_2h.


 Subroutine INISYM returns: Found  8 space group operations
 (whereof  8 operations are pure point group operations),
 and found     1 'primitive' translations



 KPOINTS: k-points                                

Automatic generation of k-mesh.
Space group operators:
 irot       det(A)        alpha          n_x          n_y          n_z        tau_x        tau_y        tau_z
    1     1.000000     0.000000     1.000000     0.000000     0.000000     0.000000     0.000000     0.000000
    2    -1.000000     0.000000     1.000000     0.000000     0.000000     0.000000     0.000000     0.000000
    3     1.000000   180.000000     0.000000     0.000000     1.000000     0.000000     0.000000     0.000000
    4    -1.000000   180.000000     0.000000     0.000000     1.000000     0.000000     0.000000     0.000000
    5     1.000000   180.000000     1.000000     0.000000     0.000000     0.000000     0.000000     0.000000
    6    -1.000000   180.000000     1.000000     0.000000     0.000000     0.000000     0.000000     0.000000
    7     1.000000   180.000000     0.000000     1.000000     0.000000     0.000000     0.000000     0.000000
    8    -1.000000   180.000000     0.000000     1.000000     0.000000     0.000000     0.000000     0.000000
 
 Subroutine IBZKPT returns following result:
 ===========================================
 
 Found     64 irreducible k-points:
 
 Following reciprocal coordinates:
            Coordinates               Weight
  0.000000  0.000000  0.000000      1.000000
  0.142857  0.000000  0.000000      2.000000
  0.285714  0.000000  0.000000      2.000000
  0.428571  0.000000  0.000000      2.000000
  0.000000  0.142857  0.000000      2.000000
  0.142857  0.142857  0.000000      4.000000
  0.285714  0.142857  0.000000      4.000000
  0.428571  0.142857  0.000000      4.000000
  0.000000  0.285714  0.000000      2.000000
  0.142857  0.285714  0.000000      4.000000
  0.285714  0.285714  0.000000      4.000000
  0.428571  0.285714  0.000000      4.000000
  0.000000  0.428571  0.000000      2.000000
  0.142857  0.428571  0.000000      4.000000
  0.285714  0.428571  0.000000      4.000000
  0.428571  0.428571  0.000000      4.000000
  0.000000  0.000000  0.142857      2.000000
  0.142857  0.000000  0.142857      4.000000
  0.285714  0.000000  0.142857      4.000000
  0.428571  0.000000  0.142857      4.000000
  0.000000  0.142857  0.142857      4.000000
  0.142857  0.142857  0.142857      8.000000
  0.285714  0.142857  0.142857      8.000000
  0.428571  0.142857  0.142857      8.000000
  0.000000  0.285714  0.142857      4.000000
  0.142857  0.285714  0.142857      8.000000
  0.285714  0.285714  0.142857      8.000000
  0.428571  0.285714  0.142857      8.000000
  0.000000  0.428571  0.142857      4.000000
  0.142857  0.428571  0.142857      8.000000
  0.285714  0.428571  0.142857      8.000000
  0.428571  0.428571  0.142857      8.000000
  0.000000  0.000000  0.285714      2.000000
  0.142857  0.000000  0.285714      4.000000
  0.285714  0.000000  0.285714      4.000000
  0.428571  0.000000  0.285714      4.000000
  0.000000  0.142857  0.285714      4.000000
  0.142857  0.142857  0.285714      8.000000
  0.285714  0.142857  0.285714      8.000000
  0.428571  0.142857  0.285714      8.000000
  0.000000  0.285714  0.285714      4.000000
  0.142857  0.285714  0.285714      8.000000
  0.285714  0.285714  0.285714      8.000000
  0.428571  0.285714  0.285714      8.000000
  0.000000  0.428571  0.285714      4.000000
  0.142857  0.428571  0.285714      8.000000
  0.285714  0.428571  0.285714      8.000000
  0.428571  0.428571  0.285714      8.000000
  0.000000  0.000000  0.428571      2.000000
  0.142857  0.000000  0.428571      4.000000
  0.285714  0.000000  0.428571      4.000000
  0.428571  0.000000  0.428571      4.000000
  0.000000  0.142857  0.428571      4.000000
  0.142857  0.142857  0.428571      8.000000
  0.285714  0.142857  0.428571      8.000000
  0.428571  0.142857  0.428571      8.000000
  0.000000  0.285714  0.428571      4.000000
  0.142857  0.285714  0.428571      8.000000
  0.285714  0.285714  0.428571      8.000000
  0.428571  0.285714  0.428571      8.000000
  0.000000  0.428571  0.428571      4.000000
  0.142857  0.428571  0.428571      8.000000
  0.285714  0.428571  0.428571      8.000000
  0.428571  0.428571  0.428571      8.000000
 
 Following cartesian coordinates:
            Coordinates               Weight
  0.000000  0.000000  0.000000      1.000000
  0.138019  0.000000  0.000000      2.000000
  0.276038  0.000000  0.000000      2.000000
  0.414057  0.000000  0.000000      2.000000
  0.000000  0.138019  0.000000      2.000000
  0.138019  0.138019  0.000000      4.000000
  0.276038  0.138019  0.000000      4.000000
  0.414057  0.138019  0.000000      4.000000
  0.000000  0.276038  0.000000      2.000000
  0.138019  0.276038  0.000000      4.000000
  0.276038  0.276038  0.000000      4.000000
  0.414057  0.276038  0.000000      4.000000
  0.000000  0.414057  0.000000      2.000000
  0.138019  0.414057  0.000000      4.000000
  0.276038  0.414057  0.000000      4.000000
  0.414057  0.414057  0.000000      4.000000
  0.000000  0.000000  0.138019      2.000000
  0.138019  0.000000  0.138019      4.000000
  0.276038  0.000000  0.138019      4.000000
  0.414057  0.000000  0.138019      4.000000
  0.000000  0.138019  0.138019      4.000000
  0.138019  0.138019  0.138019      8.000000
  0.276038  0.138019  0.138019      8.000000
  0.414057  0.138019  0.138019      8.000000
  0.000000  0.276038  0.138019      4.000000
  0.138019  0.276038  0.138019      8.000000
  0.276038  0.276038  0.138019      8.000000
  0.414057  0.276038  0.138019      8.000000
  0.000000  0.414057  0.138019      4.000000
  0.138019  0.414057  0.138019      8.000000
  0.276038  0.414057  0.138019      8.000000
  0.414057  0.414057  0.138019      8.000000
  0.000000  0.000000  0.276038      2.000000
  0.138019  0.000000  0.276038      4.000000
  0.276038  0.000000  0.276038      4.000000
  0.414057  0.000000  0.276038      4.000000
  0.000000  0.138019  0.276038      4.000000
  0.138019  0.138019  0.276038      8.000000
  0.276038  0.138019  0.276038      8.000000
  0.414057  0.138019  0.276038      8.000000
  0.000000  0.276038  0.276038      4.000000
  0.138019  0.276038  0.276038      8.000000
  0.276038  0.276038  0.276038      8.000000
  0.414057  0.276038  0.276038      8.000000
  0.000000  0.414057  0.276038      4.000000
  0.138019  0.414057  0.276038      8.000000
  0.276038  0.414057  0.276038      8.000000
  0.414057  0.414057  0.276038      8.000000
  0.000000  0.000000  0.414057      2.000000
  0.138019  0.000000  0.414057      4.000000
  0.276038  0.000000  0.414057      4.000000
  0.414057  0.000000  0.414057      4.000000
  0.000000  0.138019  0.414057      4.000000
  0.138019  0.138019  0.414057      8.000000
  0.276038  0.138019  0.414057      8.000000
  0.414057  0.138019  0.414057      8.000000
  0.000000  0.276038  0.414057      4.000000
  0.138019  0.276038  0.414057      8.000000
  0.276038  0.276038  0.414057      8.000000
  0.414057  0.276038  0.414057      8.000000
  0.000000  0.414057  0.414057      4.000000
  0.138019  0.414057  0.414057      8.000000
  0.276038  0.414057  0.414057      8.000000
  0.414057  0.414057  0.414057      8.000000
 


--------------------------------------------------------------------------------------------------------




 Dimension of arrays:
   k-points           NKPTS =     64   k-points in BZ     NKDIM =     64   number of bands    NBANDS=     84
   number of dos      NEDOS =    301   number of ions     NIONS =     16
   non local maximal  LDIM  =      6   non local SUM 2l+1 LMDIM =     18
   total plane-waves  NPLWV =  46656
   max r-space proj   IRMAX =   4041   max aug-charges    IRDMAX=  25034
   dimension x,y,z NGX =    36 NGY =   36 NGZ =   36
   dimension x,y,z NGXF=    72 NGYF=   72 NGZF=   72
   support grid    NGXF=    72 NGYF=   72 NGZF=   72
   ions per type =               8   6   2
   NGX,Y,Z   is equivalent  to a cutoff of  10.04, 10.04, 10.04 a.u.
   NGXF,Y,Z  is equivalent  to a cutoff of  20.08, 20.08, 20.08 a.u.

 SYSTEM =  Testrun for NiMnIn                      
 POSCAR =  Ni2MnIn                                 

 Startparameter for this run:
   NWRITE =      2    write-flag & timer
   PREC   = normal    normal or accurate (medium, high low for compatibility)
   ISTART =      0    job   : 0-new  1-cont  2-samecut
   ICHARG =      2    charge: 1-file 2-atom 10-const
   ISPIN  =      2    spin polarized calculation?
   LNONCOLLINEAR =      F non collinear calculations
   LSORBIT =      F    spin-orbit coupling
   INIWAV =      1    electr: 0-lowe 1-rand  2-diag
   LASPH  =      F    aspherical Exc in radial PAW
   METAGGA=      F    non-selfconsistent MetaGGA calc.

 Electronic Relaxation 1
   ENCUT  =  550.0 eV  40.42 Ry    6.36 a.u.  11.40 11.40 11.40*2*pi/ulx,y,z
   ENINI  =  550.0     initial cutoff
   ENAUG  =  544.6 eV  augmentation charge cutoff
   NELM   =     60;   NELMIN=  2; NELMDL= -5     # of ELM steps 
   EDIFF  = 0.1E-04   stopping-criterion for ELM
   LREAL  =      T    real-space projection
   NLSPLINE    = F    spline interpolate recip. space projectors
   LCOMPAT=      F    compatible to vasp.4.4
   GGA_COMPAT  = T    GGA compatible to vasp.4.4-vasp.4.6
   LMAXPAW     = -100 max onsite density
   LMAXMIX     =    2 max onsite mixed and CHGCAR
   VOSKOWN=      0    Vosko Wilk Nusair interpolation
   ROPT   =   -0.00050  -0.00050  -0.00050
 Ionic relaxation
   EDIFFG = -.1E-01   stopping-criterion for IOM
   NSW    =   1000    number of steps for IOM
   NBLOCK =      1;   KBLOCK =   1000    inner block; outer block 
   IBRION =      2    ionic relax: 0-MD 1-quasi-New 2-CG
   NFREE  =      1    steps in history (QN), initial steepest desc. (CG)
   ISIF   =      2    stress and relaxation
   IWAVPR =     11    prediction:  0-non 1-charg 2-wave 3-comb
   ISYM   =      2    0-nonsym 1-usesym 2-fastsym
   LCORR  =      T    Harris-Foulkes like correction to forces

   POTIM  = 0.5000    time-step for ionic-motion
   TEIN   =    0.0    initial temperature
   TEBEG  =    0.0;   TEEND  =   0.0 temperature during run
   SMASS  =  -3.00    Nose mass-parameter (am)
   estimated Nose-frequenzy (Omega)   =  0.10E-29 period in steps =****** mass=  -0.812E-27a.u.
   SCALEE = 1.0000    scale energy and forces
   NPACO  =    256;   APACO  = 16.0  distance and # of slots for P.C.
   PSTRESS=    0.0 pullay stress

  Mass of Ions in am
   POMASS =  58.69 54.94114.82
  Ionic Valenz
   ZVAL   =  10.00  7.00  3.00
  Atomic Wigner-Seitz radii
   RWIGS  =  -1.00 -1.00 -1.00
  virtual crystal weights 
   VCA    =   1.00  1.00  1.00
   NELECT =     128.0000    total number of electrons
   NUPDOWN=      -1.0000    fix difference up-down

 DOS related values:
   EMIN   =  10.00;   EMAX   =-10.00  energy-range for DOS
   EFERMI =   0.00
   ISMEAR =     0;   SIGMA  =   0.02  broadening in eV -4-tet -1-fermi 0-gaus

 Electronic relaxation 2 (details)
   IALGO  =     68    algorithm
   LDIAG  =      T    sub-space diagonalisation (order eigenvalues)
   LSUBROT=      F    optimize rotation matrix (better conditioning)
   TURBO    =      0    0=normal 1=particle mesh
   IRESTART =      0    0=no restart 2=restart with 2 vectors
   NREBOOT  =      0    no. of reboots
   NMIN     =      0    reboot dimension
   EREF     =   0.00    reference energy to select bands
   IMIX   =      4    mixing-type and parameters
     AMIX     =   0.40;   BMIX     =  1.00
     AMIX_MAG =   1.60;   BMIX_MAG =  1.00
     AMIN     =   0.10
     WC   =   100.;   INIMIX=   1;  MIXPRE=   1;  MAXMIX= -45

 Intra band minimization:
   WEIMIN = 0.0010     energy-eigenvalue tresh-hold
   EBREAK =  0.30E-07  absolut break condition
   DEPER  =   0.30     relativ break condition  

   TIME   =   0.40     timestep for ELM

  volume/ion in A,a.u.               =      13.24        89.38
  Fermi-wavevector in a.u.,A,eV,Ry     =   1.383860  2.615116 26.056088  1.915068
  Thomas-Fermi vector in A             =   2.508418

 Write flags
   LWAVE        =      F    write WAVECAR
   LDOWNSAMPLE  =      F    k-point downsampling of WAVECAR
   LCHARG       =      T    write CHGCAR
   LVTOT        =      F    write LOCPOT, total local potential
   LVHAR        =      F    write LOCPOT, Hartree potential only
   LELF         =      F    write electronic localiz. function (ELF)
   LORBIT       =     11    0 simple, 1 ext, 2 COOP (PROOUT), +10 PAW based schemes


 Dipole corrections
   LMONO  =      F    monopole corrections only (constant potential shift)
   LDIPOL =      F    correct potential (dipole corrections)
   IDIPOL =      0    1-x, 2-y, 3-z, 4-all directions 
   EPSILON=  1.0000000 bulk dielectric constant

 Exchange correlation treatment:
   GGA     =    --    GGA type
   LEXCH   =     8    internal setting for exchange type
   VOSKOWN=      0    Vosko Wilk Nusair interpolation
   LHFCALC =     F    Hartree Fock is set to
   LHFONE  =     F    Hartree Fock one center treatment
   AEXX    =    0.0000 exact exchange contribution

 Linear response parameters
   LEPSILON=     F    determine dielectric tensor
   LRPA    =     F    only Hartree local field effects (RPA)
   LNABLA  =     F    use nabla operator in PAW spheres
   LVEL    =     F    velocity operator in full k-point grid
   LINTERFAST=   F  fast interpolation
   KINTER  =     0    interpolate to denser k-point grid
   CSHIFT  =0.1000    complex shift for real part using Kramers Kronig
   OMEGAMAX=  -1.0    maximum frequency
   DEG_THRESHOLD= 0.2000000E-02 threshold for treating states as degnerate
   RTIME   =   -0.100 relaxation time in fs
  (WPLASMAI=    0.000 imaginary part of plasma frequency in eV, 0.658/RTIME)
   DFIELD  = 0.0000000 0.0000000 0.0000000 field for delta impulse in time

 Orbital magnetization related:
   ORBITALMAG=     F  switch on orbital magnetization
   LCHIMAG   =     F  perturbation theory with respect to B field
   DQ        =  0.001000  dq finite difference perturbation B field
   LLRAUG    =     F  two centre corrections for induced B field



--------------------------------------------------------------------------------------------------------


 conjugate gradient relaxation of ions
 charge density and potential will be updated during run
 spin polarized calculation
 RMM-DIIS sequential band-by-band and
  variant of blocked Davidson during initial phase
 perform sub-space diagonalisation
    before iterative eigenvector-optimisation
 modified Broyden-mixing scheme, WC =      100.0
 initial mixing is a Kerker type mixing with AMIX =  0.4000 and BMIX =      1.0000
 Hartree-type preconditioning will be used
 using additional bands           20
 real space projection scheme for non local part
 use partial core corrections
 calculate Harris-corrections to forces   (improved forces if not selfconsistent)
 use gradient corrections 
 use of overlap-Matrix (Vanderbilt PP)
 Gauss-broadening in eV      SIGMA  =   0.02


--------------------------------------------------------------------------------------------------------


  energy-cutoff  :      550.00
  volume of cell :      211.91
      direct lattice vectors                 reciprocal lattice vectors
     5.961918110  0.000000000  0.000000000     0.167731254  0.000000000  0.000000000
     0.000000000  5.961918110  0.000000000     0.000000000  0.167731254  0.000000000
     0.000000000  0.000000000  5.961918110     0.000000000  0.000000000  0.167731254

  length of vectors
     5.961918110  5.961918110  5.961918110     0.167731254  0.167731254  0.167731254



 k-points in units of 2pi/SCALE and weight: k-points                                
   0.00000000  0.00000000  0.00000000       0.003
   0.13801886  0.00000000  0.00000000       0.006
   0.27603772  0.00000000  0.00000000       0.006
   0.41405658  0.00000000  0.00000000       0.006
   0.00000000  0.13801886  0.00000000       0.006
   0.13801886  0.13801886  0.00000000       0.012
   0.27603772  0.13801886  0.00000000       0.012
   0.41405658  0.13801886  0.00000000       0.012
   0.00000000  0.27603772  0.00000000       0.006
   0.13801886  0.27603772  0.00000000       0.012
   0.27603772  0.27603772  0.00000000       0.012
   0.41405658  0.27603772  0.00000000       0.012
   0.00000000  0.41405658  0.00000000       0.006
   0.13801886  0.41405658  0.00000000       0.012
   0.27603772  0.41405658  0.00000000       0.012
   0.41405658  0.41405658  0.00000000       0.012
   0.00000000  0.00000000  0.13801886       0.006
   0.13801886  0.00000000  0.13801886       0.012
   0.27603772  0.00000000  0.13801886       0.012
   0.41405658  0.00000000  0.13801886       0.012
   0.00000000  0.13801886  0.13801886       0.012
   0.13801886  0.13801886  0.13801886       0.023
   0.27603772  0.13801886  0.13801886       0.023
   0.41405658  0.13801886  0.13801886       0.023
   0.00000000  0.27603772  0.13801886       0.012
   0.13801886  0.27603772  0.13801886       0.023
   0.27603772  0.27603772  0.13801886       0.023
   0.41405658  0.27603772  0.13801886       0.023
   0.00000000  0.41405658  0.13801886       0.012
   0.13801886  0.41405658  0.13801886       0.023
   0.27603772  0.41405658  0.13801886       0.023
   0.41405658  0.41405658  0.13801886       0.023
   0.00000000  0.00000000  0.27603772       0.006
   0.13801886  0.00000000  0.27603772       0.012
   0.27603772  0.00000000  0.27603772       0.012
   0.41405658  0.00000000  0.27603772       0.012
   0.00000000  0.13801886  0.27603772       0.012
   0.13801886  0.13801886  0.27603772       0.023
   0.27603772  0.13801886  0.27603772       0.023
   0.41405658  0.13801886  0.27603772       0.023
   0.00000000  0.27603772  0.27603772       0.012
   0.13801886  0.27603772  0.27603772       0.023
   0.27603772  0.27603772  0.27603772       0.023
   0.41405658  0.27603772  0.27603772       0.023
   0.00000000  0.41405658  0.27603772       0.012
   0.13801886  0.41405658  0.27603772       0.023
   0.27603772  0.41405658  0.27603772       0.023
   0.41405658  0.41405658  0.27603772       0.023
   0.00000000  0.00000000  0.41405658       0.006
   0.13801886  0.00000000  0.41405658       0.012
   0.27603772  0.00000000  0.41405658       0.012
   0.41405658  0.00000000  0.41405658       0.012
   0.00000000  0.13801886  0.41405658       0.012
   0.13801886  0.13801886  0.41405658       0.023
   0.27603772  0.13801886  0.41405658       0.023
   0.41405658  0.13801886  0.41405658       0.023
   0.00000000  0.27603772  0.41405658       0.012
   0.13801886  0.27603772  0.41405658       0.023
   0.27603772  0.27603772  0.41405658       0.023
   0.41405658  0.27603772  0.41405658       0.023
   0.00000000  0.41405658  0.41405658       0.012
   0.13801886  0.41405658  0.41405658       0.023
   0.27603772  0.41405658  0.41405658       0.023
   0.41405658  0.41405658  0.41405658       0.023

 k-points in reciprocal lattice and weights: k-points                                
   0.00000000  0.00000000  0.00000000       0.003
   0.14285714  0.00000000  0.00000000       0.006
   0.28571429  0.00000000  0.00000000       0.006
   0.42857143  0.00000000  0.00000000       0.006
   0.00000000  0.14285714  0.00000000       0.006
   0.14285714  0.14285714  0.00000000       0.012
   0.28571429  0.14285714  0.00000000       0.012
   0.42857143  0.14285714  0.00000000       0.012
   0.00000000  0.28571429  0.00000000       0.006
   0.14285714  0.28571429  0.00000000       0.012
   0.28571429  0.28571429  0.00000000       0.012
   0.42857143  0.28571429  0.00000000       0.012
   0.00000000  0.42857143  0.00000000       0.006
   0.14285714  0.42857143  0.00000000       0.012
   0.28571429  0.42857143  0.00000000       0.012
   0.42857143  0.42857143  0.00000000       0.012
   0.00000000  0.00000000  0.14285714       0.006
   0.14285714  0.00000000  0.14285714       0.012
   0.28571429  0.00000000  0.14285714       0.012
   0.42857143  0.00000000  0.14285714       0.012
   0.00000000  0.14285714  0.14285714       0.012
   0.14285714  0.14285714  0.14285714       0.023
   0.28571429  0.14285714  0.14285714       0.023
   0.42857143  0.14285714  0.14285714       0.023
   0.00000000  0.28571429  0.14285714       0.012
   0.14285714  0.28571429  0.14285714       0.023
   0.28571429  0.28571429  0.14285714       0.023
   0.42857143  0.28571429  0.14285714       0.023
   0.00000000  0.42857143  0.14285714       0.012
   0.14285714  0.42857143  0.14285714       0.023
   0.28571429  0.42857143  0.14285714       0.023
   0.42857143  0.42857143  0.14285714       0.023
   0.00000000  0.00000000  0.28571429       0.006
   0.14285714  0.00000000  0.28571429       0.012
   0.28571429  0.00000000  0.28571429       0.012
   0.42857143  0.00000000  0.28571429       0.012
   0.00000000  0.14285714  0.28571429       0.012
   0.14285714  0.14285714  0.28571429       0.023
   0.28571429  0.14285714  0.28571429       0.023
   0.42857143  0.14285714  0.28571429       0.023
   0.00000000  0.28571429  0.28571429       0.012
   0.14285714  0.28571429  0.28571429       0.023
   0.28571429  0.28571429  0.28571429       0.023
   0.42857143  0.28571429  0.28571429       0.023
   0.00000000  0.42857143  0.28571429       0.012
   0.14285714  0.42857143  0.28571429       0.023
   0.28571429  0.42857143  0.28571429       0.023
   0.42857143  0.42857143  0.28571429       0.023
   0.00000000  0.00000000  0.42857143       0.006
   0.14285714  0.00000000  0.42857143       0.012
   0.28571429  0.00000000  0.42857143       0.012
   0.42857143  0.00000000  0.42857143       0.012
   0.00000000  0.14285714  0.42857143       0.012
   0.14285714  0.14285714  0.42857143       0.023
   0.28571429  0.14285714  0.42857143       0.023
   0.42857143  0.14285714  0.42857143       0.023
   0.00000000  0.28571429  0.42857143       0.012
   0.14285714  0.28571429  0.42857143       0.023
   0.28571429  0.28571429  0.42857143       0.023
   0.42857143  0.28571429  0.42857143       0.023
   0.00000000  0.42857143  0.42857143       0.012
   0.14285714  0.42857143  0.42857143       0.023
   0.28571429  0.42857143  0.42857143       0.023
   0.42857143  0.42857143  0.42857143       0.023

 position of ions in fractional coordinates (direct lattice) 
   0.25326770  0.26895338  0.26534786
   0.74673230  0.26895338  0.26534786
   0.25326770  0.73104662  0.26534786
   0.74673230  0.73104662  0.26534786
   0.25326770  0.26895338  0.73465214
   0.74673230  0.26895338  0.73465214
   0.25326770  0.73104662  0.73465214
   0.74673230  0.73104662  0.73465214
   0.50000000  0.50000000  0.00000000
   0.00000000  0.50000000  0.00000000
   0.00000000  0.00000000  0.50000000
   0.50000000  0.00000000  0.50000000
   0.50000000  0.50000000  0.50000000
   0.00000000  0.50000000  0.50000000
   0.00000000  0.00000000  0.00000000
   0.50000000  0.00000000  0.00000000

 position of ions in cartesian coordinates  (Angst):
   1.50996129  1.60347804  1.58198222
   4.45195682  1.60347804  1.58198222
   1.50996129  4.35844007  1.58198222
   4.45195682  4.35844007  1.58198222
   1.50996129  1.60347804  4.37993589
   4.45195682  1.60347804  4.37993589
   1.50996129  4.35844007  4.37993589
   4.45195682  4.35844007  4.37993589
   2.98095906  2.98095906  0.00000000
   0.00000000  2.98095906  0.00000000
   0.00000000  0.00000000  2.98095906
   2.98095906  0.00000000  2.98095906
   2.98095906  2.98095906  2.98095906
   0.00000000  2.98095906  2.98095906
   0.00000000  0.00000000  0.00000000
   2.98095906  0.00000000  0.00000000



--------------------------------------------------------------------------------------------------------


 k-point  1 :   0.0000 0.0000 0.0000  plane waves:    6187
 k-point  2 :   0.1429 0.0000 0.0000  plane waves:    6195
 k-point  3 :   0.2857 0.0000 0.0000  plane waves:    6195
 k-point  4 :   0.4286 0.0000 0.0000  plane waves:    6218
 k-point  5 :   0.0000 0.1429 0.0000  plane waves:    6195
 k-point  6 :   0.1429 0.1429 0.0000  plane waves:    6220
 k-point  7 :   0.2857 0.1429 0.0000  plane waves:    6226
 k-point  8 :   0.4286 0.1429 0.0000  plane waves:    6219
 k-point  9 :   0.0000 0.2857 0.0000  plane waves:    6195
 k-point 10 :   0.1429 0.2857 0.0000  plane waves:    6226
 k-point 11 :   0.2857 0.2857 0.0000  plane waves:    6202
 k-point 12 :   0.4286 0.2857 0.0000  plane waves:    6196
 k-point 13 :   0.0000 0.4286 0.0000  plane waves:    6218
 k-point 14 :   0.1429 0.4286 0.0000  plane waves:    6219
 k-point 15 :   0.2857 0.4286 0.0000  plane waves:    6196
 k-point 16 :   0.4286 0.4286 0.0000  plane waves:    6200
 k-point 17 :   0.0000 0.0000 0.1429  plane waves:    6195
 k-point 18 :   0.1429 0.0000 0.1429  plane waves:    6220
 k-point 19 :   0.2857 0.0000 0.1429  plane waves:    6226
 k-point 20 :   0.4286 0.0000 0.1429  plane waves:    6219
 k-point 21 :   0.0000 0.1429 0.1429  plane waves:    6220
 k-point 22 :   0.1429 0.1429 0.1429  plane waves:    6217
 k-point 23 :   0.2857 0.1429 0.1429  plane waves:    6206
 k-point 24 :   0.4286 0.1429 0.1429  plane waves:    6208
 k-point 25 :   0.0000 0.2857 0.1429  plane waves:    6226
 k-point 26 :   0.1429 0.2857 0.1429  plane waves:    6206
 k-point 27 :   0.2857 0.2857 0.1429  plane waves:    6210
 k-point 28 :   0.4286 0.2857 0.1429  plane waves:    6203
 k-point 29 :   0.0000 0.4286 0.1429  plane waves:    6219
 k-point 30 :   0.1429 0.4286 0.1429  plane waves:    6208
 k-point 31 :   0.2857 0.4286 0.1429  plane waves:    6203
 k-point 32 :   0.4286 0.4286 0.1429  plane waves:    6217
 k-point 33 :   0.0000 0.0000 0.2857  plane waves:    6195
 k-point 34 :   0.1429 0.0000 0.2857  plane waves:    6226
 k-point 35 :   0.2857 0.0000 0.2857  plane waves:    6202
 k-point 36 :   0.4286 0.0000 0.2857  plane waves:    6196
 k-point 37 :   0.0000 0.1429 0.2857  plane waves:    6226
 k-point 38 :   0.1429 0.1429 0.2857  plane waves:    6206
 k-point 39 :   0.2857 0.1429 0.2857  plane waves:    6210
 k-point 40 :   0.4286 0.1429 0.2857  plane waves:    6203
 k-point 41 :   0.0000 0.2857 0.2857  plane waves:    6202
 k-point 42 :   0.1429 0.2857 0.2857  plane waves:    6210
 k-point 43 :   0.2857 0.2857 0.2857  plane waves:    6217
 k-point 44 :   0.4286 0.2857 0.2857  plane waves:    6210
 k-point 45 :   0.0000 0.4286 0.2857  plane waves:    6196
 k-point 46 :   0.1429 0.4286 0.2857  plane waves:    6203
 k-point 47 :   0.2857 0.4286 0.2857  plane waves:    6210
 k-point 48 :   0.4286 0.4286 0.2857  plane waves:    6178
 k-point 49 :   0.0000 0.0000 0.4286  plane waves:    6218
 k-point 50 :   0.1429 0.0000 0.4286  plane waves:    6219
 k-point 51 :   0.2857 0.0000 0.4286  plane waves:    6196
 k-point 52 :   0.4286 0.0000 0.4286  plane waves:    6200
 k-point 53 :   0.0000 0.1429 0.4286  plane waves:    6219
 k-point 54 :   0.1429 0.1429 0.4286  plane waves:    6208
 k-point 55 :   0.2857 0.1429 0.4286  plane waves:    6203
 k-point 56 :   0.4286 0.1429 0.4286  plane waves:    6217
 k-point 57 :   0.0000 0.2857 0.4286  plane waves:    6196
 k-point 58 :   0.1429 0.2857 0.4286  plane waves:    6203
 k-point 59 :   0.2857 0.2857 0.4286  plane waves:    6210
 k-point 60 :   0.4286 0.2857 0.4286  plane waves:    6178
 k-point 61 :   0.0000 0.4286 0.4286  plane waves:    6200
 k-point 62 :   0.1429 0.4286 0.4286  plane waves:    6217
 k-point 63 :   0.2857 0.4286 0.4286  plane waves:    6178
 k-point 64 :   0.4286 0.4286 0.4286  plane waves:    6149

 maximum and minimum number of plane-waves per node :      6226     6149

 maximum number of plane-waves:      6226
 maximum index in each direction: 
   IXMAX=   11   IYMAX=   11   IZMAX=   11
   IXMIN=  -11   IYMIN=  -11   IZMIN=  -11


 serial   3D FFT for wavefunctions
 parallel 3D FFT for charge:
    minimum data exchange during FFTs selected (reduces bandwidth)


 total amount of memory used by VASP MPI-rank0   138568. kBytes
=======================================================================

   base      :      30000. kBytes
   nonlr-proj:       6816. kBytes
   fftplans  :       1269. kBytes
   grid      :       6573. kBytes
   one-center:        497. kBytes
   wavefun   :      93413. kBytes

     INWAV:  cpu time    0.0000: real time    0.0000
 Broyden mixing: mesh for mixing (old mesh)
   NGX = 23   NGY = 23   NGZ = 23
  (NGX  = 72   NGY  = 72   NGZ  = 72)
  gives a total of  12167 points

 initial charge density was supplied:
 charge density of overlapping atoms calculated
 number of electron     128.0000000 magnetization       0.8000000
 keeping initial charge density in first step


--------------------------------------------------------------------------------------------------------


 Maximum index for non-local projection operator         3887
 Maximum index for augmentation-charges         2111 (set IRDMAX)


--------------------------------------------------------------------------------------------------------


 First call to EWALD:  gamma=   0.297
 Maximum number of real-space cells 3x 3x 3
 Maximum number of reciprocal cells 3x 3x 3

    FEWALD:  cpu time    0.0021: real time    0.0021


--------------------------------------- Iteration      1(   1)  ---------------------------------------


    POTLOK:  cpu time    0.1060: real time    0.1129
    SETDIJ:  cpu time    0.0360: real time    0.0360
     EDDAV:  cpu time   38.1727: real time   38.2375
       DOS:  cpu time    0.0055: real time    0.0055
    --------------------------------------------
      LOOP:  cpu time   38.3202: real time   38.3918

 eigenvalue-minimisations  : 21504
 total energy-change (2. order) : 0.1068511E+04  (-0.5419367E+04)
 number of electron     128.0000000 magnetization       0.8000000
 augmentation part      128.0000000 magnetization       0.8000000

 Free energy of the ion-electron system (eV)
  ---------------------------------------------------
  alpha Z        PSCENC =       530.99366226
  Ewald energy   TEWEN  =     -9176.56612696
  -Hartree energ DENC   =     -3247.71659066
  -exchange      EXHF   =         0.00000000
  -V(xc)+E(xc)   XCENC  =        78.31991956
  PAW double counting   =     10320.96726947   -10647.99417394
  entropy T*S    EENTRO =        -0.00161750
  eigenvalues    EBANDS =      1981.04662657
  atomic energy  EATOM  =     11229.46195210
  Solvation  Ediel_sol  =         0.00000000
  ---------------------------------------------------
  free energy    TOTEN  =      1068.51092089 eV

  energy without entropy =     1068.51253840  energy(sigma->0) =     1068.51172965


--------------------------------------------------------------------------------------------------------




--------------------------------------- Iteration      1(   2)  ---------------------------------------


     EDDAV:  cpu time   38.0907: real time   38.1624
       DOS:  cpu time    0.0059: real time    0.0059
    --------------------------------------------
      LOOP:  cpu time   38.0965: real time   38.1683

 eigenvalue-minimisations  : 21504
 total energy-change (2. order) :-0.1067264E+04  (-0.1034061E+04)
 number of electron     128.0000000 magnetization       0.8000000
 augmentation part      128.0000000 magnetization       0.8000000

 Free energy of the ion-electron system (eV)
  ---------------------------------------------------
  alpha Z        PSCENC =       530.99366226
  Ewald energy   TEWEN  =     -9176.56612696
  -Hartree energ DENC   =     -3247.71659066
  -exchange      EXHF   =         0.00000000
  -V(xc)+E(xc)   XCENC  =        78.31991956
  PAW double counting   =     10320.96726947   -10647.99417394
  entropy T*S    EENTRO =        -0.00247465
  eigenvalues    EBANDS =       913.78320310
  atomic energy  EATOM  =     11229.46195210
  Solvation  Ediel_sol  =         0.00000000
  ---------------------------------------------------
  free energy    TOTEN  =         1.24664028 eV

  energy without entropy =        1.24911493  energy(sigma->0) =        1.24787761


--------------------------------------------------------------------------------------------------------




--------------------------------------- Iteration      1(   3)  ---------------------------------------


     EDDAV:  cpu time   41.7340: real time   41.8145
       DOS:  cpu time    0.0060: real time    0.0060
    --------------------------------------------
      LOOP:  cpu time   41.7400: real time   41.8205

 eigenvalue-minimisations  : 24036
 total energy-change (2. order) :-0.1112844E+03  (-0.1002098E+03)
 number of electron     128.0000000 magnetization       0.8000000
 augmentation part      128.0000000 magnetization       0.8000000

 Free energy of the ion-electron system (eV)
  ---------------------------------------------------
  alpha Z        PSCENC =       530.99366226
  Ewald energy   TEWEN  =     -9176.56612696
  -Hartree energ DENC   =     -3247.71659066
  -exchange      EXHF   =         0.00000000
  -V(xc)+E(xc)   XCENC  =        78.31991956
  PAW double counting   =     10320.96726947   -10647.99417394
  entropy T*S    EENTRO =        -0.00211228
  eigenvalues    EBANDS =       802.49848358
  atomic energy  EATOM  =     11229.46195210
  Solvation  Ediel_sol  =         0.00000000
  ---------------------------------------------------
  free energy    TOTEN  =      -110.03771688 eV

  energy without entropy =     -110.03560459  energy(sigma->0) =     -110.03666074


--------------------------------------------------------------------------------------------------------




--------------------------------------- Iteration      1(   4)  ---------------------------------------


     EDDAV:  cpu time   53.8382: real time   53.9380
       DOS:  cpu time    0.0060: real time    0.0060
    --------------------------------------------
      LOOP:  cpu time   53.8442: real time   53.9440

 eigenvalue-minimisations  : 32832
 total energy-change (2. order) :-0.6984461E+01  (-0.6626539E+01)
 number of electron     128.0000000 magnetization       0.8000000
 augmentation part      128.0000000 magnetization       0.8000000

 Free energy of the ion-electron system (eV)
  ---------------------------------------------------
  alpha Z        PSCENC =       530.99366226
  Ewald energy   TEWEN  =     -9176.56612696
  -Hartree energ DENC   =     -3247.71659066
  -exchange      EXHF   =         0.00000000
  -V(xc)+E(xc)   XCENC  =        78.31991956
  PAW double counting   =     10320.96726947   -10647.99417394
  entropy T*S    EENTRO =        -0.00299832
  eigenvalues    EBANDS =       795.51490851
  atomic energy  EATOM  =     11229.46195210
  Solvation  Ediel_sol  =         0.00000000
  ---------------------------------------------------
  free energy    TOTEN  =      -117.02217798 eV

  energy without entropy =     -117.01917966  energy(sigma->0) =     -117.02067882


--------------------------------------------------------------------------------------------------------




--------------------------------------- Iteration      1(   5)  ---------------------------------------


     EDDAV:  cpu time   51.7121: real time   51.7943
       DOS:  cpu time    0.0061: real time    0.0062
    CHARGE:  cpu time    1.0779: real time    1.0793
    MIXING:  cpu time    0.0016: real time    0.0016
    --------------------------------------------
      LOOP:  cpu time   52.7977: real time   52.8813

 eigenvalue-minimisations  : 31440
 total energy-change (2. order) :-0.2300567E+00  (-0.2290402E+00)
 number of electron     128.0000132 magnetization      -0.1232247
 augmentation part       60.5456706 magnetization       0.2130311

 Broyden mixing:
  rms(total) = 0.34756E+01    rms(broyden)= 0.34756E+01
  rms(prec ) = 0.53444E+01
  weight for this iteration     100.00

 Free energy of the ion-electron system (eV)
  ---------------------------------------------------
  alpha Z        PSCENC =       530.99366226
  Ewald energy   TEWEN  =     -9176.56612696
  -Hartree energ DENC   =     -3247.71659066
  -exchange      EXHF   =         0.00000000
  -V(xc)+E(xc)   XCENC  =        78.31991956
  PAW double counting   =     10320.96726947   -10647.99417394
  entropy T*S    EENTRO =        -0.00299950
  eigenvalues    EBANDS =       795.28485303
  atomic energy  EATOM  =     11229.46195210
  Solvation  Ediel_sol  =         0.00000000
  ---------------------------------------------------
  free energy    TOTEN  =      -117.25223465 eV

  energy without entropy =     -117.24923514  energy(sigma->0) =     -117.25073490


--------------------------------------------------------------------------------------------------------




--------------------------------------- Iteration      1(   6)  ---------------------------------------


    POTLOK:  cpu time    0.1086: real time    0.1094
    SETDIJ:  cpu time    0.0359: real time    0.0359
    EDDIAG:  cpu time    5.3160: real time    5.3258
  RMM-DIIS:  cpu time   16.7344: real time   16.7651
    ORTHCH:  cpu time    1.0152: real time    1.0168
       DOS:  cpu time    0.0062: real time    0.0063
    CHARGE:  cpu time    1.0716: real time    1.0729
    MIXING:  cpu time    0.0017: real time    0.0017
    --------------------------------------------
      LOOP:  cpu time   24.2896: real time   24.3339

 eigenvalue-minimisations  : 21504
 total energy-change (2. order) : 0.7240212E+01  (-0.1617860E+02)
 number of electron     128.0000196 magnetization       1.0852454
 augmentation part       69.8713412 magnetization      -0.0362672

 Broyden mixing:
  rms(total) = 0.45872E+01    rms(broyden)= 0.45871E+01
  rms(prec ) = 0.62178E+01
  weight for this iteration     100.00

 eigenvalues of (default mixing * dielectric matrix)
  average eigenvalue GAMMA=   0.2333
  0.2333

 Free energy of the ion-electron system (eV)
  ---------------------------------------------------
  alpha Z        PSCENC =       530.99366226
  Ewald energy   TEWEN  =     -9176.56612696
  -Hartree energ DENC   =     -3010.99298964
  -exchange      EXHF   =         0.00000000
  -V(xc)+E(xc)   XCENC  =        65.89826636
  PAW double counting   =     11115.12522998   -11407.82672220
  entropy T*S    EENTRO =        -0.00347134
  eigenvalues    EBANDS =       543.89817716
  atomic energy  EATOM  =     11229.46195210
  Solvation  Ediel_sol  =         0.00000000
  ---------------------------------------------------
  free energy    TOTEN  =      -110.01202228 eV

  energy without entropy =     -110.00855094  energy(sigma->0) =     -110.01028661


--------------------------------------------------------------------------------------------------------




--------------------------------------- Iteration      1(   7)  ---------------------------------------


    POTLOK:  cpu time    0.0972: real time    0.0973
    SETDIJ:  cpu time    0.0343: real time    0.0343
    EDDIAG:  cpu time    5.3221: real time    5.3330
  RMM-DIIS:  cpu time   16.7325: real time   16.7648
    ORTHCH:  cpu time    1.0128: real time    1.0143
       DOS:  cpu time    0.0062: real time    0.0063
    CHARGE:  cpu time    1.0800: real time    1.0818
    MIXING:  cpu time    0.0017: real time    0.0017
    --------------------------------------------
      LOOP:  cpu time   24.2869: real time   24.3336

 eigenvalue-minimisations  : 21594
 total energy-change (2. order) :-0.1793234E+01  (-0.2370757E+01)
 number of electron     128.0000146 magnetization       1.4013866
 augmentation part       70.0280758 magnetization       2.1294795

 Broyden mixing:
  rms(total) = 0.37824E+01    rms(broyden)= 0.37823E+01
  rms(prec ) = 0.69965E+01
  weight for this iteration     100.00

 eigenvalues of (default mixing * dielectric matrix)
  average eigenvalue GAMMA=   0.3976
  0.3976  0.3976

 Free energy of the ion-electron system (eV)
  ---------------------------------------------------
  alpha Z        PSCENC =       530.99366226
  Ewald energy   TEWEN  =     -9176.56612696
  -Hartree energ DENC   =     -3006.55941667
  -exchange      EXHF   =         0.00000000
  -V(xc)+E(xc)   XCENC  =        67.05625133
  PAW double counting   =     11406.46544441   -11706.39192656
  entropy T*S    EENTRO =        -0.00236225
  eigenvalues    EBANDS =       543.73726593
  atomic energy  EATOM  =     11229.46195210
  Solvation  Ediel_sol  =         0.00000000
  ---------------------------------------------------
  free energy    TOTEN  =      -111.80525641 eV

  energy without entropy =     -111.80289416  energy(sigma->0) =     -111.80407529


--------------------------------------------------------------------------------------------------------




--------------------------------------- Iteration      1(   8)  ---------------------------------------


    POTLOK:  cpu time    0.0972: real time    0.0974
    SETDIJ:  cpu time    0.0340: real time    0.0340
    EDDIAG:  cpu time    5.3625: real time    5.3703
  RMM-DIIS:  cpu time   16.8320: real time   16.8606
    ORTHCH:  cpu time    1.0157: real time    1.0170
       DOS:  cpu time    0.0063: real time    0.0064
    CHARGE:  cpu time    1.0835: real time    1.0861
    MIXING:  cpu time    0.0018: real time    0.0018
    --------------------------------------------
      LOOP:  cpu time   24.4331: real time   24.4736

 eigenvalue-minimisations  : 21504
 total energy-change (2. order) : 0.4753347E+01  (-0.2480482E+01)
 number of electron     128.0000184 magnetization       1.7113762
 augmentation part       68.5241290 magnetization       0.8915041

 Broyden mixing:
  rms(total) = 0.29111E+01    rms(broyden)= 0.29110E+01
  rms(prec ) = 0.56107E+01
  weight for this iteration     100.00

 eigenvalues of (default mixing * dielectric matrix)
  average eigenvalue GAMMA=   0.4057
  0.5294  0.5294  0.1583

 Free energy of the ion-electron system (eV)
  ---------------------------------------------------
  alpha Z        PSCENC =       530.99366226
  Ewald energy   TEWEN  =     -9176.56612696
  -Hartree energ DENC   =     -3054.04125492
  -exchange      EXHF   =         0.00000000
  -V(xc)+E(xc)   XCENC  =        70.18855420
  PAW double counting   =     11724.21716510   -12044.90602081
  entropy T*S    EENTRO =        -0.00443795
  eigenvalues    EBANDS =       613.60459773
  atomic energy  EATOM  =     11229.46195210
  Solvation  Ediel_sol  =         0.00000000
  ---------------------------------------------------
  free energy    TOTEN  =      -107.05190926 eV

  energy without entropy =     -107.04747131  energy(sigma->0) =     -107.04969029


--------------------------------------------------------------------------------------------------------




--------------------------------------- Iteration      1(   9)  ---------------------------------------


    POTLOK:  cpu time    0.1045: real time    0.1052
    SETDIJ:  cpu time    0.0365: real time    0.0365
    EDDIAG:  cpu time    5.4188: real time    5.4260
  RMM-DIIS:  cpu time   16.8666: real time   16.8890
    ORTHCH:  cpu time    1.0124: real time    1.0136
       DOS:  cpu time    0.0062: real time    0.0062
    CHARGE:  cpu time    1.0915: real time    1.0938
    MIXING:  cpu time    0.0019: real time    0.0019
    --------------------------------------------
      LOOP:  cpu time   24.5383: real time   24.5723

 eigenvalue-minimisations  : 21575
 total energy-change (2. order) : 0.3096427E+01  (-0.7579892E+00)
 number of electron     128.0000170 magnetization       1.8570726
 augmentation part       66.6831414 magnetization       1.6791927

 Broyden mixing:
  rms(total) = 0.18820E+01    rms(broyden)= 0.18819E+01
  rms(prec ) = 0.32340E+01
  weight for this iteration     100.00

 eigenvalues of (default mixing * dielectric matrix)
  average eigenvalue GAMMA=   0.4745
  0.9849  0.5073  0.2734  0.1323

 Free energy of the ion-electron system (eV)
  ---------------------------------------------------
  alpha Z        PSCENC =       530.99366226
  Ewald energy   TEWEN  =     -9176.56612696
  -Hartree energ DENC   =     -3072.75688893
  -exchange      EXHF   =         0.00000000
  -V(xc)+E(xc)   XCENC  =        71.37946686
  PAW double counting   =     11934.17966921   -12264.78377298
  entropy T*S    EENTRO =        -0.00430068
  eigenvalues    EBANDS =       644.14085660
  atomic energy  EATOM  =     11229.46195210
  Solvation  Ediel_sol  =         0.00000000
  ---------------------------------------------------
  free energy    TOTEN  =      -103.95548253 eV

  energy without entropy =     -103.95118185  energy(sigma->0) =     -103.95333219


--------------------------------------------------------------------------------------------------------




--------------------------------------- Iteration      1(  10)  ---------------------------------------


    POTLOK:  cpu time    0.0977: real time    0.0977
    SETDIJ:  cpu time    0.0343: real time    0.0343
    EDDIAG:  cpu time    5.3943: real time    5.4014
  RMM-DIIS:  cpu time   16.8459: real time   16.8666
    ORTHCH:  cpu time    1.0145: real time    1.0157
       DOS:  cpu time    0.0059: real time    0.0059
    CHARGE:  cpu time    1.0987: real time    1.0996
    MIXING:  cpu time    0.0020: real time    0.0020
    --------------------------------------------
      LOOP:  cpu time   24.4932: real time   24.5231

 eigenvalue-minimisations  : 21547
 total energy-change (2. order) : 0.1069350E+01  (-0.2301539E+00)
 number of electron     128.0000165 magnetization       1.4903870
 augmentation part       67.5823602 magnetization       1.7492858

 Broyden mixing:
  rms(total) = 0.10877E+01    rms(broyden)= 0.10877E+01
  rms(prec ) = 0.15290E+01
  weight for this iteration     100.00

 eigenvalues of (default mixing * dielectric matrix)
  average eigenvalue GAMMA=   0.4544
  1.0425  0.4533  0.4533  0.1890  0.1340

 Free energy of the ion-electron system (eV)
  ---------------------------------------------------
  alpha Z        PSCENC =       530.99366226
  Ewald energy   TEWEN  =     -9176.56612696
  -Hartree energ DENC   =     -3055.95657712
  -exchange      EXHF   =         0.00000000
  -V(xc)+E(xc)   XCENC  =        70.84191824
  PAW double counting   =     12200.59465098   -12533.69174633
  entropy T*S    EENTRO =        -0.00195675
  eigenvalues    EBANDS =       631.43809103
  atomic energy  EATOM  =     11229.46195210
  Solvation  Ediel_sol  =         0.00000000
  ---------------------------------------------------
  free energy    TOTEN  =      -102.88613256 eV

  energy without entropy =     -102.88417581  energy(sigma->0) =     -102.88515419


--------------------------------------------------------------------------------------------------------




--------------------------------------- Iteration      1(  11)  ---------------------------------------


    POTLOK:  cpu time    0.0975: real time    0.0976
    SETDIJ:  cpu time    0.0342: real time    0.0342
    EDDIAG:  cpu time    5.4223: real time    5.4292
  RMM-DIIS:  cpu time   16.9763: real time   17.0051
    ORTHCH:  cpu time    1.0232: real time    1.0245
       DOS:  cpu time    0.0059: real time    0.0059
    CHARGE:  cpu time    1.0970: real time    1.0980
    MIXING:  cpu time    0.0021: real time    0.0021
    --------------------------------------------
      LOOP:  cpu time   24.6585: real time   24.6967

 eigenvalue-minimisations  : 21693
 total energy-change (2. order) : 0.3036505E-01  (-0.4065252E-01)
 number of electron     128.0000165 magnetization       1.0786622
 augmentation part       67.5499337 magnetization       1.2803331

 Broyden mixing:
  rms(total) = 0.71705E+00    rms(broyden)= 0.71705E+00
  rms(prec ) = 0.81697E+00
  weight for this iteration     100.00

 eigenvalues of (default mixing * dielectric matrix)
  average eigenvalue GAMMA=   0.4616
  1.0218  0.4918  0.4918  0.4367  0.1972  0.1303

 Free energy of the ion-electron system (eV)
  ---------------------------------------------------
  alpha Z        PSCENC =       530.99366226
  Ewald energy   TEWEN  =     -9176.56612696
  -Hartree energ DENC   =     -3053.77484966
  -exchange      EXHF   =         0.00000000
  -V(xc)+E(xc)   XCENC  =        71.77299982
  PAW double counting   =     12340.06400470   -12675.93448819
  entropy T*S    EENTRO =        -0.00211263
  eigenvalues    EBANDS =       631.12919105
  atomic energy  EATOM  =     11229.46195210
  Solvation  Ediel_sol  =         0.00000000
  ---------------------------------------------------
  free energy    TOTEN  =      -102.85576751 eV

  energy without entropy =     -102.85365488  energy(sigma->0) =     -102.85471120


--------------------------------------------------------------------------------------------------------




--------------------------------------- Iteration      1(  12)  ---------------------------------------


    POTLOK:  cpu time    0.1005: real time    0.1011
    SETDIJ:  cpu time    0.0351: real time    0.0351
    EDDIAG:  cpu time    5.4541: real time    5.4604
  RMM-DIIS:  cpu time   16.9692: real time   16.9938
    ORTHCH:  cpu time    1.0242: real time    1.0252
       DOS:  cpu time    0.0059: real time    0.0061
    CHARGE:  cpu time    1.1105: real time    1.1116
    MIXING:  cpu time    0.0023: real time    0.0023
    --------------------------------------------
      LOOP:  cpu time   24.7018: real time   24.7356

 eigenvalue-minimisations  : 21571
 total energy-change (2. order) :-0.1744086E+00  (-0.2576849E-01)
 number of electron     128.0000168 magnetization      -0.1008806
 augmentation part       67.4137097 magnetization       0.1844817

 Broyden mixing:
  rms(total) = 0.62305E+00    rms(broyden)= 0.62305E+00
  rms(prec ) = 0.74243E+00
  weight for this iteration     100.00

 eigenvalues of (default mixing * dielectric matrix)
  average eigenvalue GAMMA=   0.5913
  1.2153  0.8638  0.8638  0.6054  0.1307  0.1974  0.2627

 Free energy of the ion-electron system (eV)
  ---------------------------------------------------
  alpha Z        PSCENC =       530.99366226
  Ewald energy   TEWEN  =     -9176.56612696
  -Hartree energ DENC   =     -3054.54847584
  -exchange      EXHF   =         0.00000000
  -V(xc)+E(xc)   XCENC  =        72.63305832
  PAW double counting   =     12424.29435047   -12762.45819171
  entropy T*S    EENTRO =        -0.00199896
  eigenvalues    EBANDS =       633.16159425
  atomic energy  EATOM  =     11229.46195210
  Solvation  Ediel_sol  =         0.00000000
  ---------------------------------------------------
  free energy    TOTEN  =      -103.03017606 eV

  energy without entropy =     -103.02817710  energy(sigma->0) =     -103.02917658


--------------------------------------------------------------------------------------------------------




--------------------------------------- Iteration      1(  13)  ---------------------------------------


    POTLOK:  cpu time    0.0989: real time    0.0992
    SETDIJ:  cpu time    0.0350: real time    0.0350
    EDDIAG:  cpu time    5.4744: real time    5.4857
  RMM-DIIS:  cpu time   17.1696: real time   17.1947
    ORTHCH:  cpu time    1.0238: real time    1.0250
       DOS:  cpu time    0.0059: real time    0.0061
    CHARGE:  cpu time    1.1059: real time    1.1071
    MIXING:  cpu time    0.0023: real time    0.0023
    --------------------------------------------
      LOOP:  cpu time   24.9159: real time   24.9552

 eigenvalue-minimisations  : 21913
 total energy-change (2. order) :-0.2323563E+00  (-0.3902312E-01)
 number of electron     128.0000167 magnetization      -0.4014681
 augmentation part       67.6821186 magnetization      -0.1790610

 Broyden mixing:
  rms(total) = 0.36003E+00    rms(broyden)= 0.36003E+00
  rms(prec ) = 0.49471E+00
  weight for this iteration     100.00

 eigenvalues of (default mixing * dielectric matrix)
  average eigenvalue GAMMA=   0.6509
  1.9131  0.8450  0.8450  0.5557  0.4802  0.1307  0.1988  0.2383

 Free energy of the ion-electron system (eV)
  ---------------------------------------------------
  alpha Z        PSCENC =       530.99366226
  Ewald energy   TEWEN  =     -9176.56612696
  -Hartree energ DENC   =     -3047.28553163
  -exchange      EXHF   =         0.00000000
  -V(xc)+E(xc)   XCENC  =        74.51867925
  PAW double counting   =     12669.21684065   -13011.16101800
  entropy T*S    EENTRO =        -0.00143931
  eigenvalues    EBANDS =       627.56044925
  atomic energy  EATOM  =     11229.46195210
  Solvation  Ediel_sol  =         0.00000000
  ---------------------------------------------------
  free energy    TOTEN  =      -103.26253237 eV

  energy without entropy =     -103.26109307  energy(sigma->0) =     -103.26181272


--------------------------------------------------------------------------------------------------------




--------------------------------------- Iteration      1(  14)  ---------------------------------------


    POTLOK:  cpu time    0.0978: real time    0.0981
    SETDIJ:  cpu time    0.0353: real time    0.0353
    EDDIAG:  cpu time    5.4997: real time    5.5103
  RMM-DIIS:  cpu time   17.6123: real time   17.6393
    ORTHCH:  cpu time    1.0237: real time    1.0259
       DOS:  cpu time    0.0060: real time    0.0062
    CHARGE:  cpu time    1.1087: real time    1.1096
    MIXING:  cpu time    0.0024: real time    0.0024
    --------------------------------------------
      LOOP:  cpu time   25.3859: real time   25.4272

 eigenvalue-minimisations  : 22441
 total energy-change (2. order) :-0.7553348E-02  (-0.1705176E-01)
 number of electron     128.0000168 magnetization      -0.3982681
 augmentation part       67.7139533 magnetization      -0.0619797

 Broyden mixing:
  rms(total) = 0.20903E+00    rms(broyden)= 0.20903E+00
  rms(prec ) = 0.27792E+00
  weight for this iteration     100.00

 eigenvalues of (default mixing * dielectric matrix)
  average eigenvalue GAMMA=   0.6406
  2.0033  0.8688  0.8688  0.5587  0.5587  0.3413  0.1307  0.2008  0.2340

 Free energy of the ion-electron system (eV)
  ---------------------------------------------------
  alpha Z        PSCENC =       530.99366226
  Ewald energy   TEWEN  =     -9176.56612696
  -Hartree energ DENC   =     -3045.99277405
  -exchange      EXHF   =         0.00000000
  -V(xc)+E(xc)   XCENC  =        74.98500703
  PAW double counting   =     12761.72546497   -13105.23154736
  entropy T*S    EENTRO =        -0.00144583
  eigenvalues    EBANDS =       627.35572211
  atomic energy  EATOM  =     11229.46195210
  Solvation  Ediel_sol  =         0.00000000
  ---------------------------------------------------
  free energy    TOTEN  =      -103.27008572 eV

  energy without entropy =     -103.26863989  energy(sigma->0) =     -103.26936281


--------------------------------------------------------------------------------------------------------




--------------------------------------- Iteration      1(  15)  ---------------------------------------


    POTLOK:  cpu time    0.1047: real time    0.1111
    SETDIJ:  cpu time    0.0377: real time    0.0378
    EDDIAG:  cpu time    5.5882: real time    5.5994
  RMM-DIIS:  cpu time   17.4452: real time   17.4755
    ORTHCH:  cpu time    1.0249: real time    1.0262
       DOS:  cpu time    0.0057: real time    0.0057
    CHARGE:  cpu time    1.1276: real time    1.1287
    MIXING:  cpu time    0.0028: real time    0.0029
    --------------------------------------------
      LOOP:  cpu time   25.3368: real time   25.3873

 eigenvalue-minimisations  : 22253
 total energy-change (2. order) :-0.4964490E-03  (-0.3807735E-02)
 number of electron     128.0000168 magnetization      -0.3403116
 augmentation part       67.6392427 magnetization      -0.0219282

 Broyden mixing:
  rms(total) = 0.10219E+00    rms(broyden)= 0.10219E+00
  rms(prec ) = 0.13993E+00
  weight for this iteration     100.00

 eigenvalues of (default mixing * dielectric matrix)
  average eigenvalue GAMMA=   0.7271
  2.2016  1.1408  1.1408  0.6906  0.6906  0.5360  0.1307  0.3027  0.1995  0.2374

 Free energy of the ion-electron system (eV)
  ---------------------------------------------------
  alpha Z        PSCENC =       530.99366226
  Ewald energy   TEWEN  =     -9176.56612696
  -Hartree energ DENC   =     -3046.91891066
  -exchange      EXHF   =         0.00000000
  -V(xc)+E(xc)   XCENC  =        75.01497520
  PAW double counting   =     12800.01230695   -13144.18646956
  entropy T*S    EENTRO =        -0.00157943
  eigenvalues    EBANDS =       628.91960794
  atomic energy  EATOM  =     11229.46195210
  Solvation  Ediel_sol  =         0.00000000
  ---------------------------------------------------
  free energy    TOTEN  =      -103.27058217 eV

  energy without entropy =     -103.26900274  energy(sigma->0) =     -103.26979245


--------------------------------------------------------------------------------------------------------




--------------------------------------- Iteration      1(  16)  ---------------------------------------


    POTLOK:  cpu time    0.0980: real time    0.1017
    SETDIJ:  cpu time    0.0342: real time    0.0343
    EDDIAG:  cpu time    5.5769: real time    5.5852
  RMM-DIIS:  cpu time   18.4161: real time   18.4437
    ORTHCH:  cpu time    1.0255: real time    1.0267
       DOS:  cpu time    0.0059: real time    0.0059
    CHARGE:  cpu time    1.1166: real time    1.1180
    MIXING:  cpu time    0.0028: real time    0.0028
    --------------------------------------------
[...]
     79      10.6457      0.00000
     80      11.1701      0.00000
     81      11.3931      0.00000
     82      11.7165      0.00000
     83      11.9922      0.00000
     84      12.1796      0.00000


--------------------------------------------------------------------------------------------------------


 soft charge-density along one line, spin component           1
         0         1         2         3         4         5         6         7         8         9
 total charge-density along one line

 soft charge-density along one line, spin component           2
         0         1         2         3         4         5         6         7         8         9
 total charge-density along one line

 pseudopotential strength for first ion, spin component:           1
 -1.628   0.012  -0.014   0.005   0.001  -2.264   0.011  -0.013
  0.012  -1.629  -0.018  -0.010   0.035   0.011  -2.266  -0.017
 -0.014  -0.018  -1.614  -0.006  -0.006  -0.013  -0.017  -2.251
  0.005  -0.010  -0.006  -1.625  -0.015   0.004  -0.010  -0.005
  0.001   0.035  -0.006  -0.015  -1.627   0.001   0.034  -0.006
 -2.264   0.011  -0.013   0.004   0.001  -2.830   0.011  -0.013
  0.011  -2.266  -0.017  -0.010   0.034   0.011  -2.832  -0.016
 -0.013  -0.017  -2.251  -0.005  -0.006  -0.013  -0.016  -2.818
  0.004  -0.010  -0.005  -2.261  -0.014   0.004  -0.009  -0.005
  0.001   0.034  -0.006  -0.014  -2.263   0.001   0.032  -0.005
 -0.002   0.005  -0.002   0.002  -0.001  -0.002   0.005  -0.002
 -0.004   0.009  -0.003   0.004  -0.001  -0.004   0.009  -0.003
  0.001  -0.003   0.005  -0.001   0.009   0.001  -0.003   0.005
 -0.001  -0.007  -0.008   0.001   0.000  -0.001  -0.007  -0.008
 -0.007  -0.001   0.001  -0.003  -0.001  -0.006  -0.001   0.001
  0.002  -0.002   0.005  -0.002   0.009   0.002  -0.002   0.005
 -0.002  -0.007  -0.008   0.002   0.000  -0.002  -0.007  -0.008
 -0.007  -0.002   0.001  -0.001  -0.001  -0.007  -0.002   0.000
 pseudopotential strength for first ion, spin component:           2
 -1.604   0.002   0.029  -0.016  -0.000  -2.241   0.001   0.027
  0.002  -1.614   0.018  -0.003  -0.030   0.001  -2.251   0.017
  0.029   0.018  -1.588   0.011  -0.006   0.027   0.017  -2.225
 -0.016  -0.003   0.011  -1.605   0.022  -0.016  -0.003   0.011
 -0.000  -0.030  -0.006   0.022  -1.577  -0.000  -0.029  -0.006
 -2.241   0.001   0.027  -0.016  -0.000  -2.809   0.001   0.026
  0.001  -2.251   0.017  -0.003  -0.029   0.001  -2.818   0.016
  0.027   0.017  -2.225   0.011  -0.006   0.026   0.016  -2.793
 -0.016  -0.003   0.011  -2.242   0.021  -0.016  -0.002   0.010
 -0.000  -0.029  -0.006   0.021  -2.215  -0.000  -0.027  -0.006
  0.005  -0.007   0.002  -0.004  -0.001   0.005  -0.007   0.002
  0.010  -0.014   0.003  -0.008  -0.002   0.009  -0.013   0.003
 -0.003  -0.011   0.006   0.001   0.010  -0.003  -0.011   0.006
  0.001  -0.007  -0.012  -0.002  -0.000   0.001  -0.007  -0.012
 -0.007   0.001   0.001  -0.011  -0.001  -0.007   0.001   0.001
 -0.004  -0.013   0.006   0.002   0.010  -0.003  -0.012   0.006
  0.002  -0.007  -0.013  -0.003  -0.000   0.002  -0.007  -0.013
 -0.007   0.002   0.001  -0.013  -0.002  -0.007   0.002   0.001
 total augmentation occupancy for first ion, spin component:           1
  2.047   0.029   0.024   0.043   0.014  -0.564  -0.013  -0.015  -0.056  -0.009  -0.025   0.000  -0.011   0.003   0.012   0.001
  0.029   2.019   0.028  -0.004  -0.000  -0.013  -0.549  -0.018  -0.001   0.004  -0.071   0.031   0.026   0.033  -0.004  -0.011
  0.024   0.028   2.819   0.014  -0.046  -0.015  -0.018  -1.091  -0.011   0.028  -0.016  -0.000   0.034  -0.067   0.011   0.001
  0.043  -0.004   0.014   1.967  -0.002  -0.056  -0.001  -0.011  -0.511  -0.003   0.027  -0.002  -0.000  -0.000   0.032   0.000
  0.014  -0.000  -0.046  -0.002   2.760  -0.009   0.004   0.028  -0.003  -1.051   0.024  -0.004   0.079  -0.000  -0.021   0.004
 -0.564  -0.013  -0.015  -0.056  -0.009   0.866   0.005   0.009   0.068   0.006   0.016   0.000   0.011  -0.002   0.013  -0.001
 -0.013  -0.549  -0.018  -0.001   0.004   0.005   0.855   0.017   0.004  -0.015   0.046  -0.019   0.001   0.002   0.003   0.001
 -0.015  -0.018  -1.091  -0.011   0.028   0.009   0.017   1.137   0.008  -0.013   0.011   0.000  -0.034   0.060  -0.009   0.004
 -0.056  -0.001  -0.011  -0.511  -0.003   0.068   0.004   0.008   0.831   0.005  -0.016   0.001   0.000   0.005  -0.003  -0.000
 -0.009   0.004   0.028  -0.003  -1.051   0.006  -0.015  -0.013   0.005   1.109  -0.021   0.004  -0.071   0.001   0.017   0.007
 -0.025  -0.071  -0.016   0.027   0.024   0.016   0.046   0.011  -0.016  -0.021   2.130  -0.280   0.061   0.050   0.011  -0.007
  0.000   0.031  -0.000  -0.002  -0.004   0.000  -0.019   0.000   0.001   0.004  -0.280   0.047  -0.001   0.001  -0.001  -0.000
 -0.011   0.026   0.034  -0.000   0.079   0.011   0.001  -0.034   0.000  -0.071   0.061  -0.001   0.258  -0.001   0.001  -0.027
  0.003   0.033  -0.067  -0.000  -0.000  -0.002   0.002   0.060   0.005   0.001   0.050   0.001  -0.001   0.256  -0.001  -0.002
  0.012  -0.004   0.011   0.032  -0.021   0.013   0.003  -0.009  -0.003   0.017   0.011  -0.001   0.001  -0.001   0.258  -0.000
  0.001  -0.011   0.001   0.000   0.004  -0.001   0.001   0.004  -0.000   0.007  -0.007  -0.000  -0.027  -0.002  -0.000   0.003
  0.000  -0.011  -0.005   0.000   0.000  -0.000   0.001  -0.006  -0.000  -0.000  -0.006  -0.000  -0.002  -0.027   0.000   0.000
 -0.009   0.000  -0.001  -0.011   0.001  -0.000  -0.000   0.001   0.001  -0.001  -0.002   0.000  -0.000   0.000  -0.027  -0.000
 total augmentation occupancy for first ion, spin component:           2
  0.105   0.082   0.213   0.156   0.019  -0.078  -0.084  -0.122  -0.165  -0.017   0.051  -0.001  -0.042   0.043  -0.008   0.002
  0.082   0.021   0.200  -0.054  -0.250  -0.085  -0.018  -0.119   0.055   0.119  -0.112   0.003  -0.072   0.005   0.040   0.003
  0.213   0.200   0.050   0.049  -0.006  -0.122  -0.120  -0.027  -0.018   0.005   0.032   0.004   0.011   0.021  -0.008  -0.001
  0.156  -0.054   0.049   0.037   0.139  -0.165   0.055  -0.017  -0.026  -0.067  -0.044   0.002   0.044  -0.033  -0.086  -0.001
  0.019  -0.250  -0.006   0.139   0.152  -0.018   0.120   0.004  -0.067  -0.083  -0.003  -0.002   0.007  -0.012   0.021   0.001
 -0.078  -0.085  -0.122  -0.165  -0.018   0.054   0.078   0.061   0.155   0.015  -0.032   0.006   0.027  -0.030   0.008  -0.003
 -0.084  -0.018  -0.120   0.055   0.120   0.078   0.012   0.064  -0.050  -0.035   0.075  -0.014   0.044  -0.003  -0.029  -0.005
 -0.122  -0.119  -0.027  -0.017   0.004   0.061   0.064   0.011  -0.002  -0.004  -0.022   0.000  -0.007  -0.027   0.008   0.001
 -0.165   0.055  -0.018  -0.026  -0.067   0.155  -0.050  -0.002   0.016   0.021   0.028  -0.006  -0.031   0.019   0.056   0.002
 -0.017   0.119   0.005  -0.067  -0.083   0.015  -0.035  -0.004   0.021   0.037   0.002   0.001  -0.003   0.009  -0.019  -0.000
  0.051  -0.112   0.032  -0.044  -0.003  -0.032   0.075  -0.022   0.028   0.002  -0.004  -0.000   0.005  -0.004  -0.006  -0.000
 -0.001   0.003   0.004   0.002  -0.002   0.006  -0.014   0.000  -0.006   0.001  -0.000  -0.000  -0.001  -0.005  -0.002   0.000
 -0.042  -0.072   0.011   0.044   0.007   0.027   0.044  -0.007  -0.031  -0.003   0.005  -0.001   0.001   0.015  -0.006   0.000
  0.043   0.005   0.021  -0.033  -0.012  -0.030  -0.003  -0.027   0.019   0.009  -0.004  -0.005   0.015  -0.006   0.006  -0.002
 -0.008   0.040  -0.008  -0.086   0.021   0.008  -0.029   0.008   0.056  -0.019  -0.006  -0.002  -0.006   0.006   0.002   0.001
  0.002   0.003  -0.001  -0.001   0.001  -0.003  -0.005   0.001   0.002  -0.000  -0.000   0.000   0.000  -0.002   0.001   0.000
 -0.002  -0.000  -0.000   0.001   0.001   0.003   0.000   0.000  -0.002  -0.001  -0.003   0.001  -0.002   0.000  -0.001   0.000
  0.000  -0.001  -0.001   0.003  -0.000  -0.000   0.002   0.000  -0.006   0.001  -0.001   0.000   0.001  -0.001  -0.000  -0.000


------------------------ aborting loop because EDIFF is reached ----------------------------------------





 total charge     

# of ion       s       p       d       tot
------------------------------------------
    1        0.477   0.425   8.379   9.281
    2        0.477   0.424   8.371   9.272
    3        0.476   0.426   8.390   9.291
    4        0.477   0.424   8.379   9.280
    5        0.477   0.424   8.379   9.280
    6        0.476   0.426   8.390   9.291
    7        0.477   0.424   8.371   9.272
    8        0.477   0.425   8.379   9.281
    9        0.335   0.331   4.921   5.588
   10        0.328   0.313   4.932   5.573
   11        0.324   0.316   4.894   5.534
   12        0.325   0.311   4.939   5.575
   13        0.361   0.374   4.972   5.707
   14        0.354   0.364   4.951   5.670
   15        1.232   1.643   0.279   3.155
   16        1.240   1.671   0.292   3.203
--------------------------------------------------
tot          8.313   8.720  97.220 114.253



 magnetization (x)

# of ion       s       p       d       tot
------------------------------------------
    1       -0.003  -0.002   0.021   0.016
    2       -0.002  -0.004   0.025   0.018
    3       -0.001  -0.000   0.029   0.028
    4       -0.001   0.002   0.047   0.048
    5       -0.001   0.002   0.047   0.048
    6       -0.001  -0.000   0.029   0.028
    7       -0.002  -0.004   0.025   0.018
    8       -0.003  -0.002   0.021   0.016
    9       -0.028  -0.048  -3.462  -3.538
   10       -0.036  -0.024  -3.552  -3.612
   11       -0.037  -0.058  -3.527  -3.622
   12        0.032   0.019   3.525   3.575
   13        0.022   0.027   3.243   3.292
   14        0.029   0.039   3.276   3.344
   15        0.003   0.091  -0.004   0.089
   16       -0.016   0.024   0.002   0.010
--------------------------------------------------
tot         -0.046   0.060  -0.256  -0.243

    CHARGE:  cpu time    1.1284: real time    1.1304
    FORLOC:  cpu time    0.0073: real time    0.0073
    FORNL :  cpu time    8.4783: real time    8.4898
    STRESS:  cpu time   25.4387: real time   25.4602
    FORCOR:  cpu time    0.1006: real time    0.1007
    FORHAR:  cpu time    0.0163: real time    0.0163
    MIXING:  cpu time    0.0043: real time    0.0043
    OFIELD:  cpu time    0.0000: real time    0.0000

  FORCE on cell =-STRESS in cart. coord.  units (eV):
  Direction    XX          YY          ZZ          XY          YZ          ZX
  --------------------------------------------------------------------------------------
  Alpha Z   530.99366   530.99366   530.99366
  Ewald   -2800.75029 -3225.06538 -3150.77786    -0.00000    -0.00000    -0.00000
  Hartree  1261.82565   858.42669   925.45082    -0.00000    -0.00000    -0.00000
  E(xc)    -670.13374  -670.18443  -669.91168    -0.00000    -0.00000     0.00000
  Local    -819.40814    10.06611  -129.66860    -0.00000     0.00000    -0.00000
  n-local  -147.44828  -146.89643  -147.56735    -0.24080    -0.24827    -0.26036
  augment  1580.95154  1578.19837  1577.91372     0.00000     0.00000     0.00000
  Kinetic  1065.11243  1062.25222  1060.29466     0.25101     1.47699     1.22364
  Fock        0.00000     0.00000     0.00000     0.00000     0.00000     0.00000
  -------------------------------------------------------------------------------------
  Total       1.14283    -2.20919    -3.27263     0.00000     0.00000     0.00000
  in kB       8.64042   -16.70268   -24.74285     0.00000     0.00000     0.00000
  external pressure =      -10.94 kB  Pullay stress =        0.00 kB


 VOLUME and BASIS-vectors are now :
 -----------------------------------------------------------------------------
  energy-cutoff  :      550.00
  volume of cell :      211.91
      direct lattice vectors                 reciprocal lattice vectors
     5.961918110  0.000000000  0.000000000     0.167731254  0.000000000  0.000000000
     0.000000000  5.961918110  0.000000000     0.000000000  0.167731254  0.000000000
     0.000000000  0.000000000  5.961918110     0.000000000  0.000000000  0.167731254

  length of vectors
     5.961918110  5.961918110  5.961918110     0.167731254  0.167731254  0.167731254


 FORCES acting on ions
    electron-ion (+dipol)            ewald-force                    non-local-force                 convergence-correction
 -----------------------------------------------------------------------------------------------
   0.177E+02 0.175E+03 0.155E+03   -.177E+02 -.173E+03 -.152E+03   -.142E-01 -.220E+01 -.224E+01   -.258E-02 -.458E-02 0.146E-01
   -.177E+02 0.175E+03 0.155E+03   0.177E+02 -.173E+03 -.152E+03   0.142E-01 -.220E+01 -.224E+01   0.258E-02 -.458E-02 0.146E-01
   0.177E+02 -.175E+03 0.155E+03   -.177E+02 0.173E+03 -.152E+03   -.142E-01 0.220E+01 -.224E+01   -.258E-02 0.458E-02 0.146E-01
   -.177E+02 -.175E+03 0.155E+03   0.177E+02 0.173E+03 -.152E+03   0.142E-01 0.220E+01 -.224E+01   0.258E-02 0.458E-02 0.146E-01
   0.177E+02 0.175E+03 -.155E+03   -.177E+02 -.173E+03 0.152E+03   -.142E-01 -.220E+01 0.224E+01   -.258E-02 -.458E-02 -.146E-01
   -.177E+02 0.175E+03 -.155E+03   0.177E+02 -.173E+03 0.152E+03   0.142E-01 -.220E+01 0.224E+01   0.258E-02 -.458E-02 -.146E-01
   0.177E+02 -.175E+03 -.155E+03   -.177E+02 0.173E+03 0.152E+03   -.142E-01 0.220E+01 0.224E+01   -.258E-02 0.458E-02 -.146E-01
   -.177E+02 -.175E+03 -.155E+03   0.177E+02 0.173E+03 0.152E+03   0.142E-01 0.220E+01 0.224E+01   0.258E-02 0.458E-02 -.146E-01
   0.219E-12 0.156E-11 0.121E-11   -.972E-13 0.398E-13 0.510E-13   0.000E+00 0.000E+00 0.000E+00   -.474E-13 -.772E-13 0.810E-13
   -.153E-13 0.253E-12 -.955E-13   0.108E-12 -.241E-13 -.201E-13   0.000E+00 0.000E+00 0.000E+00   0.422E-13 -.738E-13 0.826E-13
   -.212E-13 -.710E-13 0.233E-12   0.862E-13 0.578E-13 -.561E-13   0.000E+00 0.000E+00 0.000E+00   0.208E-13 0.695E-13 -.844E-13
   0.219E-12 -.673E-13 0.264E-11   0.276E-13 0.293E-13 0.221E-13   0.000E+00 0.000E+00 0.000E+00   -.199E-13 0.781E-13 -.109E-12
   0.207E-12 0.421E-12 0.114E-11   0.602E-13 0.572E-13 0.477E-13   0.000E+00 0.000E+00 0.000E+00   -.416E-13 -.698E-13 -.835E-13
   -.294E-13 0.246E-12 0.217E-12   -.468E-13 0.114E-12 0.513E-14   0.000E+00 0.000E+00 0.000E+00   0.351E-13 -.667E-13 -.655E-13
   -.655E-14 -.250E-13 -.225E-13   -.354E-13 -.933E-14 -.108E-13   0.000E+00 0.000E+00 0.000E+00   0.975E-14 0.240E-13 0.316E-13
   0.169E-14 0.191E-13 0.529E-12   0.168E-13 0.191E-13 0.105E-13   0.000E+00 0.000E+00 0.000E+00   -.102E-13 0.253E-13 0.344E-13
 -----------------------------------------------------------------------------------------------
   0.165E-10 0.156E-10 0.121E-09   -.858E-15 -.542E-15 -.150E-12   0.000E+00 0.888E-15 0.444E-15   0.972E-13 0.148E-14 -.588E-12


 POSITION                                       TOTAL-FORCE (eV/Angst)
 -----------------------------------------------------------------------------------
      1.50996      1.60348      1.58198         0.000483      0.002312     -0.001458
      4.45196      1.60348      1.58198        -0.000483      0.002312     -0.001458
      1.50996      4.35844      1.58198         0.000483     -0.002312     -0.001458
      4.45196      4.35844      1.58198        -0.000483     -0.002312     -0.001458
      1.50996      1.60348      4.37994         0.000483      0.002312      0.001458
      4.45196      1.60348      4.37994        -0.000483      0.002312      0.001458
      1.50996      4.35844      4.37994         0.000483     -0.002312      0.001458
      4.45196      4.35844      4.37994        -0.000483     -0.002312      0.001458
      2.98096      2.98096      0.00000         0.000000      0.000000      0.000000
      0.00000      2.98096      0.00000         0.000000      0.000000      0.000000
      0.00000      0.00000      2.98096         0.000000      0.000000      0.000000
      2.98096      0.00000      2.98096         0.000000      0.000000      0.000000
      2.98096      2.98096      2.98096         0.000000      0.000000      0.000000
      0.00000      2.98096      2.98096         0.000000      0.000000      0.000000
      0.00000      0.00000      0.00000         0.000000      0.000000      0.000000
      2.98096      0.00000      0.00000         0.000000      0.000000      0.000000
 -----------------------------------------------------------------------------------
    total drift:                                0.000000      0.000000      0.000000


--------------------------------------------------------------------------------------------------------



  FREE ENERGIE OF THE ION-ELECTRON SYSTEM (eV)
  ---------------------------------------------------
  free  energy   TOTEN  =      -103.27280942 eV

  energy  without entropy=     -103.27124358  energy(sigma->0) =     -103.27202650



--------------------------------------------------------------------------------------------------------


    POTLOK:  cpu time    0.1372: real time    0.1373


--------------------------------------------------------------------------------------------------------




--------------------------------------------------------------------------------------------------------


  
 reached required accuracy - stopping structural energy minimisation
     LOOP+:  cpu time  682.5289: real time  683.7154
    4ORBIT:  cpu time    0.0000: real time    0.0000



 total charge     

# of ion       s       p       d       tot
------------------------------------------
    1        0.477   0.425   8.379   9.281
    2        0.477   0.424   8.371   9.272
    3        0.476   0.426   8.390   9.291
    4        0.477   0.424   8.379   9.280
    5        0.477   0.424   8.379   9.280
    6        0.476   0.426   8.390   9.291
    7        0.477   0.424   8.371   9.272
    8        0.477   0.425   8.379   9.281
    9        0.335   0.331   4.921   5.588
   10        0.328   0.313   4.932   5.573
   11        0.324   0.316   4.894   5.534
   12        0.325   0.311   4.939   5.575
   13        0.361   0.374   4.972   5.707
   14        0.354   0.364   4.951   5.670
   15        1.232   1.643   0.279   3.155
   16        1.240   1.671   0.292   3.203
--------------------------------------------------
tot          8.313   8.720  97.220 114.253



 magnetization (x)

# of ion       s       p       d       tot
------------------------------------------
    1       -0.003  -0.002   0.021   0.016
    2       -0.002  -0.004   0.025   0.018
    3       -0.001  -0.000   0.029   0.028
    4       -0.001   0.002   0.047   0.048
    5       -0.001   0.002   0.047   0.048
    6       -0.001  -0.000   0.029   0.028
    7       -0.002  -0.004   0.025   0.018
    8       -0.003  -0.002   0.021   0.016
    9       -0.028  -0.048  -3.462  -3.538
   10       -0.036  -0.024  -3.552  -3.612
   11       -0.037  -0.058  -3.527  -3.622
   12        0.032   0.019   3.525   3.575
   13        0.022   0.027   3.243   3.292
   14        0.029   0.039   3.276   3.344
   15        0.003   0.091  -0.004   0.089
   16       -0.016   0.024   0.002   0.010
--------------------------------------------------
tot         -0.046   0.060  -0.256  -0.243


 total amount of memory used by VASP MPI-rank0   138568. kBytes
=======================================================================

   base      :      30000. kBytes
   nonlr-proj:       6816. kBytes
   fftplans  :       1269. kBytes
   grid      :       6573. kBytes
   one-center:        497. kBytes
   wavefun   :      93413. kBytes

  
  
 General timing and accounting informations for this job:
 ========================================================
  
                  Total CPU time used (sec):      698.007
                            User time (sec):      661.501
                          System time (sec):       36.506
                         Elapsed time (sec):      700.041
  
                   Maximum memory used (kb):      181960.
                   Average memory used (kb):           0.
  
                          Minor page faults:     17408075
                          Major page faults:            7
                 Voluntary context switches:         1906
