 vasp.5.4.4.18Apr17-6-g9f103f2a35 (build May 21 2018 20:56:50) complex           
 executed on             LinuxGNU date 2021.10.15  15:45:48
 running on   12 total cores
 distrk:  each k-point on   12 cores,    1 groups
 distr:  one band on NCORES_PER_BAND=   1 cores,   12 groups


--------------------------------------------------------------------------------------------------------


 INCAR:
 POTCAR:    PAW_PBE Ni 02Aug2007                  
 POTCAR:    PAW_PBE Mn 06Sep2000                  
 POTCAR:    PAW_PBE In 08Apr2002                  

 ----------------------------------------------------------------------------- 
|                                                                             |
|           W    W    AA    RRRRR   N    N  II  N    N   GGGG   !!!           |
|           W    W   A  A   R    R  NN   N  II  NN   N  G    G  !!!           |
|           W    W  A    A  R    R  N N  N  II  N N  N  G       !!!           |
|           W WW W  AAAAAA  RRRRR   N  N N  II  N  N N  G  GGG   !            |
|           WW  WW  A    A  R   R   N   NN  II  N   NN  G    G                |
|           W    W  A    A  R    R  N    N  II  N    N   GGGG   !!!           |
|                                                                             |
|      For optimal performance we recommend to set                            |
|        NCORE= 4 - approx SQRT( number of cores)                             |
|      NCORE specifies how many cores store one orbital (NPAR=cpu/NCORE).     |
|      This setting can  greatly improve the performance of VASP for DFT.     |
|      The default,   NCORE=1            might be grossly inefficient         |
|      on modern multi-core architectures or massively parallel machines.     |
|      Do your own testing !!!!                                               |
|      Unfortunately you need to use the default for GW and RPA calculations. |
|      (for HF NCORE is supported but not extensively tested yet)             |
|                                                                             |
 ----------------------------------------------------------------------------- 

 POTCAR:    PAW_PBE Ni 02Aug2007                  
   VRHFIN =Ni:                                                                  
   LEXCH  = PE                                                                  
   EATOM  =  1077.6739 eV,   79.2068 Ry                                         
                                                                                
   TITEL  = PAW_PBE Ni 02Aug2007                                                
   LULTRA =        F    use ultrasoft PP ?                                      
   IUNSCR =        1    unscreen: 0-lin 1-nonlin 2-no                           
   RPACOR =    2.000    partial core radius                                     
   POMASS =   58.690; ZVAL   =   10.000    mass and valenz                      
   RCORE  =    2.300    outmost cutoff radius                                   
   RWIGS  =    2.430; RWIGS  =    1.286    wigner-seitz radius (au A)           
   ENMAX  =  269.532; ENMIN  =  202.149 eV                                      
   RCLOC  =    1.201    cutoff for local pot                                    
   LCOR   =        T    correct aug charges                                     
   LPAW   =        T    paw PP                                                  
   EAUG   =  544.565                                                            
   DEXC   =    0.000                                                            
   RMAX   =    2.357    core radius for proj-oper                               
   RAUG   =    1.300    factor for augmentation sphere                          
   RDEP   =    2.390    radius for radial grids                                 
   RDEPT  =    1.838    core radius for aug-charge                              
                                                                                
   Atomic configuration                                                         
    9 entries                                                                   
     n  l   j            E        occ.                                          
     1  0  0.50     -8206.4253   2.0000                                         
     2  0  0.50      -976.1748   2.0000                                         
     2  1  1.50      -839.0571   6.0000                                         
     3  0  0.50      -105.9991   2.0000                                         
     3  1  1.50       -66.4603   6.0000                                         
     3  2  2.50        -4.6458   9.0000                                         
     4  0  0.50        -4.4926   1.0000                                         
     4  1  1.50        -4.0817   0.0000                                         
     4  3  2.50        -1.3606   0.0000                                         
   Description                                                                  
     l       E           TYP  RCUT    TYP  RCUT                                 
     2     -4.6457903     23  2.300                                             
     2     -6.0063729     23  2.300                                             
     0     -4.4925590     23  2.300                                             
     0      5.0102601     23  2.300                                             
     1     -2.7211652     23  2.300                                             
     1     16.5183231     23  2.300                                             
  local pseudopotential read in
  partial core-charges read in
  partial kinetic energy density read in
  atomic valenz-charges read in
  non local Contribution for L=           2  read in
    real space projection operators read in
  non local Contribution for L=           2  read in
    real space projection operators read in
  non local Contribution for L=           0  read in
    real space projection operators read in
  non local Contribution for L=           0  read in
    real space projection operators read in
  non local Contribution for L=           1  read in
    real space projection operators read in
  non local Contribution for L=           1  read in
    real space projection operators read in
    PAW grid and wavefunctions read in

   number of l-projection  operators is LMAX  =           6
   number of lm-projection operators is LMMAX =          18

 POTCAR:    PAW_PBE Mn 06Sep2000                  
   VRHFIN =Mn: d6 s1                                                            
   LEXCH  = PE                                                                  
   EATOM  =   416.7541 eV,   30.6306 Ry                                         
                                                                                
   TITEL  = PAW_PBE Mn 06Sep2000                                                
   LULTRA =        F    use ultrasoft PP ?                                      
   IUNSCR =        1    unscreen: 0-lin 1-nonlin 2-no                           
   RPACOR =    2.000    partial core radius                                     
   POMASS =   54.938; ZVAL   =    7.000    mass and valenz                      
   RCORE  =    2.300    outmost cutoff radius                                   
   RWIGS  =    2.500; RWIGS  =    1.323    wigner-seitz radius (au A)           
   ENMAX  =  269.864; ENMIN  =  202.398 eV                                      
   RCLOC  =    1.725    cutoff for local pot                                    
   LCOR   =        T    correct aug charges                                     
   LPAW   =        T    paw PP                                                  
   EAUG   =  500.711                                                            
   DEXC   =    0.000                                                            
   RMAX   =    2.343    core radius for proj-oper                               
   RAUG   =    1.300    factor for augmentation sphere                          
   RDEP   =    2.338    radius for radial grids                                 
   RDEPT  =    1.911    core radius for aug-charge                              
                                                                                
   Atomic configuration                                                         
    9 entries                                                                   
     n  l   j            E        occ.                                          
     1  0  0.50     -6424.8288   2.0000                                         
     2  0  0.50      -739.1154   2.0000                                         
     2  1  1.50      -625.3949   6.0000                                         
     3  0  0.50       -81.6100   2.0000                                         
     3  1  1.50       -50.4667   6.0000                                         
     3  2  2.50        -3.3745   6.0000                                         
     4  0  0.50        -4.1331   1.0000                                         
     4  1  0.50        -4.0817   0.0000                                         
     4  3  2.50        -1.3606   0.0000                                         
   Description                                                                  
     l       E           TYP  RCUT    TYP  RCUT                                 
     2     -3.3744664     23  2.300                                             
     2     -4.7350490     23  2.300                                             
     0     -4.1331408     23  2.300                                             
     0      7.6656614     23  2.300                                             
     1     -2.7211652     23  2.300                                             
     1     20.4087390     23  2.300                                             
  local pseudopotential read in
  partial core-charges read in
  partial kinetic energy density read in
  atomic valenz-charges read in
  non local Contribution for L=           2  read in
    real space projection operators read in
  non local Contribution for L=           2  read in
    real space projection operators read in
  non local Contribution for L=           0  read in
    real space projection operators read in
  non local Contribution for L=           0  read in
    real space projection operators read in
  non local Contribution for L=           1  read in
    real space projection operators read in
  non local Contribution for L=           1  read in
    real space projection operators read in
    PAW grid and wavefunctions read in

   number of l-projection  operators is LMAX  =           6
   number of lm-projection operators is LMMAX =          18

 POTCAR:    PAW_PBE In 08Apr2002                  
   VRHFIN =In: s2p1                                                             
   LEXCH  = PE                                                                  
   EATOM  =    53.7908 eV,    3.9535 Ry                                         
                                                                                
   TITEL  = PAW_PBE In 08Apr2002                                                
   LULTRA =        F    use ultrasoft PP ?                                      
   IUNSCR =        1    unscreen: 0-lin 1-nonlin 2-no                           
   RPACOR =    2.400    partial core radius                                     
   POMASS =  114.820; ZVAL   =    3.000    mass and valenz                      
   RCORE  =    3.100    outmost cutoff radius                                   
   RWIGS  =    3.170; RWIGS  =    1.677    wigner-seitz radius (au A)           
   ENMAX  =   95.934; ENMIN  =   71.951 eV                                      
   ICORE  =        3    local potential                                         
   LCOR   =        T    correct aug charges                                     
   LPAW   =        T    paw PP                                                  
   EAUG   =  237.125                                                            
   DEXC   =    0.000                                                            
   RMAX   =    3.168    core radius for proj-oper                               
   RAUG   =    1.300    factor for augmentation sphere                          
   RDEP   =    3.187    radius for radial grids                                 
   RDEPT  =    2.711    core radius for aug-charge                              
                                                                                
   Atomic configuration                                                         
   13 entries                                                                   
     n  l   j            E        occ.                                          
     1  0  0.50    -27747.9169   2.0000                                         
     2  0  0.50     -4154.4438   2.0000                                         
     2  1  1.50     -3728.4305   6.0000                                         
     3  0  0.50      -788.3680   2.0000                                         
     3  1  1.50      -648.9215   6.0000                                         
     3  2  2.50      -432.5893  10.0000                                         
     4  0  0.50      -119.6363   2.0000                                         
     4  1  1.50       -78.1086   6.0000                                         
     4  2  2.50       -18.6227  10.0000                                         
     5  0  0.50        -8.2107   2.0000                                         
     5  1  0.50        -2.5185   1.0000                                         
     5  2  2.50        -1.3606   0.0000                                         
     4  3  2.50        -2.7212   0.0000                                         
   Description                                                                  
     l       E           TYP  RCUT    TYP  RCUT                                 
     0     -8.2107306     23  3.100                                             
     0     -6.1485975     23  3.100                                             
     1     -2.5184867     23  3.100                                             
     1      3.2427302     23  3.100                                             
     2     -1.3605826     23  3.100                                             
     3     -1.3605826     23  3.100                                             
  local pseudopotential read in
  partial core-charges read in
  partial kinetic energy density read in
  atomic valenz-charges read in
  non local Contribution for L=           0  read in
    real space projection operators read in
  non local Contribution for L=           0  read in
    real space projection operators read in
  non local Contribution for L=           1  read in
    real space projection operators read in
  non local Contribution for L=           1  read in
    real space projection operators read in
  non local Contribution for L=           2  read in
    real space projection operators read in
    PAW grid and wavefunctions read in

   number of l-projection  operators is LMAX  =           5
   number of lm-projection operators is LMMAX =          13

 Optimization of the real space projectors (new method)

 maximal supplied QI-value         = 16.25
 optimisation between [QCUT,QGAM] = [ 11.86, 23.89] = [ 39.41,159.82] Ry 
 Optimized for a Real-space Cutoff    1.33 Angstroem

   l    n(q)    QCUT    max X(q) W(low)/X(q) W(high)/X(q)  e(spline) 
   2      9    11.864    60.317    0.21E-03    0.51E-03    0.25E-06
   2      9    11.864    55.921    0.21E-03    0.51E-03    0.26E-06
   0      9    11.864    51.690    0.22E-03    0.30E-04    0.17E-06
   0      9    11.864    30.015    0.20E-03    0.28E-04    0.15E-06
   1      9    11.864    18.849    0.76E-04    0.33E-03    0.17E-06
   1      9    11.864    14.624    0.60E-04    0.28E-03    0.15E-06
 Optimization of the real space projectors (new method)

 maximal supplied QI-value         = 16.25
 optimisation between [QCUT,QGAM] = [ 11.86, 23.89] = [ 39.41,159.82] Ry 
 Optimized for a Real-space Cutoff    1.36 Angstroem

   l    n(q)    QCUT    max X(q) W(low)/X(q) W(high)/X(q)  e(spline) 
   2      9    11.864   110.144    0.49E-03    0.50E-03    0.21E-06
   2      9    11.864   103.200    0.49E-03    0.51E-03    0.22E-06
   0     10    11.864    68.437    0.12E-03    0.41E-04    0.21E-06
   0     10    11.864    33.971    0.11E-03    0.36E-04    0.19E-06
   1      9    11.864    17.065    0.24E-03    0.26E-03    0.93E-07
   1      9    11.864    12.540    0.19E-03    0.20E-03    0.80E-07
 Optimization of the real space projectors (new method)

 maximal supplied QI-value         = 12.09
 optimisation between [QCUT,QGAM] = [ 11.97, 23.95] = [ 40.14,160.58] Ry 
 Optimized for a Real-space Cutoff    1.63 Angstroem

   l    n(q)    QCUT    max X(q) W(low)/X(q) W(high)/X(q)  e(spline) 
   0     12    11.973   106.980    0.33E-03    0.16E-03    0.25E-05
   0     12    11.973    81.086    0.37E-03    0.18E-03    0.28E-05
   1     11    11.973    53.097    0.22E-03    0.42E-03    0.40E-05
   1     11    11.973    32.621    0.20E-03    0.40E-03    0.37E-05
   2     11    11.973     8.820    0.30E-03    0.17E-03    0.41E-06
  PAW_PBE Ni 02Aug2007                  :
 energy of atom  1       EATOM=-1077.6739
 kinetic energy error for atom=    0.0027 (will be added to EATOM!!)
  PAW_PBE Mn 06Sep2000                  :
 energy of atom  2       EATOM= -416.7541
 kinetic energy error for atom=    0.0022 (will be added to EATOM!!)
  PAW_PBE In 08Apr2002                  :
 energy of atom  3       EATOM=  -53.7908
 kinetic energy error for atom=    0.0000 (will be added to EATOM!!)


 POSCAR: Ni2MnIn                                 
  positions in direct lattice
  velocities in cartesian coordinates
 exchange correlation table for  LEXCH =        8
   RHO(1)=    0.500       N(1)  =     2000
   RHO(2)=  100.500       N(2)  =     4000



--------------------------------------------------------------------------------------------------------


 ion  position               nearest neighbor table
   1  0.250  0.250  0.271-  11 2.51  14 2.51  12 2.51  13 2.51  15 2.66  10 2.66   9 2.66  16 2.66
                             5 2.73   2 2.98   3 2.98   3 2.98   2 2.98
   2  0.750  0.250  0.271-  11 2.51  14 2.51  12 2.51  13 2.51  15 2.66  10 2.66   9 2.66  16 2.66
                             6 2.73   1 2.98   4 2.98   4 2.98   1 2.98
   3  0.250  0.750  0.271-  11 2.51  14 2.51  12 2.51  13 2.51  15 2.66  10 2.66   9 2.66  16 2.66
                             7 2.73   4 2.98   1 2.98   1 2.98   4 2.98
   4  0.750  0.750  0.271-  11 2.51  14 2.51  12 2.51  13 2.51  15 2.66  10 2.66   9 2.66  16 2.66
                             8 2.73   3 2.98   2 2.98   2 2.98   3 2.98
   5  0.250  0.250  0.729-  11 2.51  14 2.51  12 2.51  13 2.51  15 2.66  10 2.66   9 2.66  16 2.66
                             1 2.73   6 2.98   7 2.98   7 2.98   6 2.98
   6  0.750  0.250  0.729-  11 2.51  14 2.51  12 2.51  13 2.51  15 2.66  10 2.66   9 2.66  16 2.66
                             2 2.73   5 2.98   8 2.98   8 2.98   5 2.98
   7  0.250  0.750  0.729-  11 2.51  14 2.51  12 2.51  13 2.51  15 2.66  10 2.66   9 2.66  16 2.66
                             3 2.73   8 2.98   5 2.98   5 2.98   8 2.98
   8  0.750  0.750  0.729-  11 2.51  14 2.51  12 2.51  13 2.51  15 2.66  10 2.66   9 2.66  16 2.66
                             4 2.73   7 2.98   6 2.98   6 2.98   7 2.98
   9  0.500  0.000  0.000-   1 2.66   2 2.66   3 2.66   4 2.66   5 2.66   6 2.66   7 2.66   8 2.66
                            12 2.98  15 2.98  16 2.98  12 2.98  16 2.98  15 2.98
  10  0.000  0.500  0.000-   1 2.66   2 2.66   3 2.66   4 2.66   5 2.66   6 2.66   7 2.66   8 2.66
                            14 2.98  15 2.98  16 2.98  14 2.98  15 2.98  16 2.98
  11  0.000  0.000  0.500-   1 2.51   2 2.51   3 2.51   4 2.51   5 2.51   6 2.51   7 2.51   8 2.51
                            12 2.98  14 2.98  15 2.98  15 2.98  14 2.98  12 2.98
  12  0.500  0.000  0.500-   1 2.51   2 2.51   3 2.51   4 2.51   5 2.51   6 2.51   7 2.51   8 2.51
                             9 2.98  11 2.98  13 2.98   9 2.98  13 2.98  11 2.98
  13  0.500  0.500  0.500-   1 2.51   2 2.51   3 2.51   4 2.51   5 2.51   6 2.51   7 2.51   8 2.51
                            12 2.98  14 2.98  16 2.98  16 2.98  12 2.98  14 2.98
  14  0.000  0.500  0.500-   1 2.51   2 2.51   3 2.51   4 2.51   5 2.51   6 2.51   7 2.51   8 2.51
                            10 2.98  11 2.98  13 2.98  10 2.98  11 2.98  13 2.98
  15  0.000  0.000  0.000-   1 2.66   2 2.66   3 2.66   4 2.66   5 2.66   6 2.66   7 2.66   8 2.66
                             9 2.98  10 2.98  11 2.98  11 2.98  10 2.98   9 2.98
  16  0.500  0.500  0.000-   1 2.66   2 2.66   3 2.66   4 2.66   5 2.66   6 2.66   7 2.66   8 2.66
                             9 2.98  10 2.98  13 2.98  13 2.98   9 2.98  10 2.98

  LATTYP: Found a simple cubic cell.
 ALAT       =     5.9587790710
  
  Lattice vectors:
  
 A1 = (   5.9587790710,   0.0000000000,   0.0000000000)
 A2 = (   0.0000000000,   5.9587790710,   0.0000000000)
 A3 = (   0.0000000000,   0.0000000000,   5.9587790710)


Analysis of symmetry for initial positions (statically):
=====================================================================
 Subroutine PRICEL returns:
 Original cell was already a primitive cell.
 

 Routine SETGRP: Setting up the symmetry group for a 
 simple cubic supercell.


 Subroutine GETGRP returns: Found  8 space group operations
 (whereof  8 operations were pure point group operations)
 out of a pool of 48 trial point group operations.


The static configuration has the point symmetry D_2h.


Analysis of symmetry for dynamics (positions and initial velocities):
=====================================================================
 Subroutine PRICEL returns:
 Original cell was already a primitive cell.
 

 Routine SETGRP: Setting up the symmetry group for a 
 simple cubic supercell.


 Subroutine GETGRP returns: Found  8 space group operations
 (whereof  8 operations were pure point group operations)
 out of a pool of 48 trial point group operations.


The dynamic configuration has the point symmetry D_2h.


Analysis of structural, dynamic, and magnetic symmetry:
=====================================================================
 Subroutine PRICEL returns:
 Original cell was already a primitive cell.
 

 Routine SETGRP: Setting up the symmetry group for a 
 simple cubic supercell.


 Subroutine GETGRP returns: Found  8 space group operations
 (whereof  8 operations were pure point group operations)
 out of a pool of 48 trial point group operations.


The magnetic configuration has the point symmetry D_2h.


 Subroutine INISYM returns: Found  8 space group operations
 (whereof  8 operations are pure point group operations),
 and found     1 'primitive' translations



 KPOINTS: k-points                                

Automatic generation of k-mesh.
Space group operators:
 irot       det(A)        alpha          n_x          n_y          n_z        tau_x        tau_y        tau_z
    1     1.000000     0.000000     1.000000     0.000000     0.000000     0.000000     0.000000     0.000000
    2    -1.000000     0.000000     1.000000     0.000000     0.000000     0.000000     0.000000     0.000000
    3     1.000000   180.000000     0.000000     0.000000     1.000000     0.000000     0.000000     0.000000
    4    -1.000000   180.000000     0.000000     0.000000     1.000000     0.000000     0.000000     0.000000
    5     1.000000   180.000000     1.000000     0.000000     0.000000     0.000000     0.000000     0.000000
    6    -1.000000   180.000000     1.000000     0.000000     0.000000     0.000000     0.000000     0.000000
    7     1.000000   180.000000     0.000000     1.000000     0.000000     0.000000     0.000000     0.000000
    8    -1.000000   180.000000     0.000000     1.000000     0.000000     0.000000     0.000000     0.000000
 
 Subroutine IBZKPT returns following result:
 ===========================================
 
 Found     64 irreducible k-points:
 
 Following reciprocal coordinates:
            Coordinates               Weight
  0.000000  0.000000  0.000000      1.000000
  0.142857  0.000000  0.000000      2.000000
  0.285714  0.000000  0.000000      2.000000
  0.428571  0.000000  0.000000      2.000000
  0.000000  0.142857  0.000000      2.000000
  0.142857  0.142857  0.000000      4.000000
  0.285714  0.142857  0.000000      4.000000
  0.428571  0.142857  0.000000      4.000000
  0.000000  0.285714  0.000000      2.000000
  0.142857  0.285714  0.000000      4.000000
  0.285714  0.285714  0.000000      4.000000
  0.428571  0.285714  0.000000      4.000000
  0.000000  0.428571  0.000000      2.000000
  0.142857  0.428571  0.000000      4.000000
  0.285714  0.428571  0.000000      4.000000
  0.428571  0.428571  0.000000      4.000000
  0.000000  0.000000  0.142857      2.000000
  0.142857  0.000000  0.142857      4.000000
  0.285714  0.000000  0.142857      4.000000
  0.428571  0.000000  0.142857      4.000000
  0.000000  0.142857  0.142857      4.000000
  0.142857  0.142857  0.142857      8.000000
  0.285714  0.142857  0.142857      8.000000
  0.428571  0.142857  0.142857      8.000000
  0.000000  0.285714  0.142857      4.000000
  0.142857  0.285714  0.142857      8.000000
  0.285714  0.285714  0.142857      8.000000
  0.428571  0.285714  0.142857      8.000000
  0.000000  0.428571  0.142857      4.000000
  0.142857  0.428571  0.142857      8.000000
  0.285714  0.428571  0.142857      8.000000
  0.428571  0.428571  0.142857      8.000000
  0.000000  0.000000  0.285714      2.000000
  0.142857  0.000000  0.285714      4.000000
  0.285714  0.000000  0.285714      4.000000
  0.428571  0.000000  0.285714      4.000000
  0.000000  0.142857  0.285714      4.000000
  0.142857  0.142857  0.285714      8.000000
  0.285714  0.142857  0.285714      8.000000
  0.428571  0.142857  0.285714      8.000000
  0.000000  0.285714  0.285714      4.000000
  0.142857  0.285714  0.285714      8.000000
  0.285714  0.285714  0.285714      8.000000
  0.428571  0.285714  0.285714      8.000000
  0.000000  0.428571  0.285714      4.000000
  0.142857  0.428571  0.285714      8.000000
  0.285714  0.428571  0.285714      8.000000
  0.428571  0.428571  0.285714      8.000000
  0.000000  0.000000  0.428571      2.000000
  0.142857  0.000000  0.428571      4.000000
  0.285714  0.000000  0.428571      4.000000
  0.428571  0.000000  0.428571      4.000000
  0.000000  0.142857  0.428571      4.000000
  0.142857  0.142857  0.428571      8.000000
  0.285714  0.142857  0.428571      8.000000
  0.428571  0.142857  0.428571      8.000000
  0.000000  0.285714  0.428571      4.000000
  0.142857  0.285714  0.428571      8.000000
  0.285714  0.285714  0.428571      8.000000
  0.428571  0.285714  0.428571      8.000000
  0.000000  0.428571  0.428571      4.000000
  0.142857  0.428571  0.428571      8.000000
  0.285714  0.428571  0.428571      8.000000
  0.428571  0.428571  0.428571      8.000000
 
 Following cartesian coordinates:
            Coordinates               Weight
  0.000000  0.000000  0.000000      1.000000
  0.138092  0.000000  0.000000      2.000000
  0.276183  0.000000  0.000000      2.000000
  0.414275  0.000000  0.000000      2.000000
  0.000000  0.138092  0.000000      2.000000
  0.138092  0.138092  0.000000      4.000000
  0.276183  0.138092  0.000000      4.000000
  0.414275  0.138092  0.000000      4.000000
  0.000000  0.276183  0.000000      2.000000
  0.138092  0.276183  0.000000      4.000000
  0.276183  0.276183  0.000000      4.000000
  0.414275  0.276183  0.000000      4.000000
  0.000000  0.414275  0.000000      2.000000
  0.138092  0.414275  0.000000      4.000000
  0.276183  0.414275  0.000000      4.000000
  0.414275  0.414275  0.000000      4.000000
  0.000000  0.000000  0.138092      2.000000
  0.138092  0.000000  0.138092      4.000000
  0.276183  0.000000  0.138092      4.000000
  0.414275  0.000000  0.138092      4.000000
  0.000000  0.138092  0.138092      4.000000
  0.138092  0.138092  0.138092      8.000000
  0.276183  0.138092  0.138092      8.000000
  0.414275  0.138092  0.138092      8.000000
  0.000000  0.276183  0.138092      4.000000
  0.138092  0.276183  0.138092      8.000000
  0.276183  0.276183  0.138092      8.000000
  0.414275  0.276183  0.138092      8.000000
  0.000000  0.414275  0.138092      4.000000
  0.138092  0.414275  0.138092      8.000000
  0.276183  0.414275  0.138092      8.000000
  0.414275  0.414275  0.138092      8.000000
  0.000000  0.000000  0.276183      2.000000
  0.138092  0.000000  0.276183      4.000000
  0.276183  0.000000  0.276183      4.000000
  0.414275  0.000000  0.276183      4.000000
  0.000000  0.138092  0.276183      4.000000
  0.138092  0.138092  0.276183      8.000000
  0.276183  0.138092  0.276183      8.000000
  0.414275  0.138092  0.276183      8.000000
  0.000000  0.276183  0.276183      4.000000
  0.138092  0.276183  0.276183      8.000000
  0.276183  0.276183  0.276183      8.000000
  0.414275  0.276183  0.276183      8.000000
  0.000000  0.414275  0.276183      4.000000
  0.138092  0.414275  0.276183      8.000000
  0.276183  0.414275  0.276183      8.000000
  0.414275  0.414275  0.276183      8.000000
  0.000000  0.000000  0.414275      2.000000
  0.138092  0.000000  0.414275      4.000000
  0.276183  0.000000  0.414275      4.000000
  0.414275  0.000000  0.414275      4.000000
  0.000000  0.138092  0.414275      4.000000
  0.138092  0.138092  0.414275      8.000000
  0.276183  0.138092  0.414275      8.000000
  0.414275  0.138092  0.414275      8.000000
  0.000000  0.276183  0.414275      4.000000
  0.138092  0.276183  0.414275      8.000000
  0.276183  0.276183  0.414275      8.000000
  0.414275  0.276183  0.414275      8.000000
  0.000000  0.414275  0.414275      4.000000
  0.138092  0.414275  0.414275      8.000000
  0.276183  0.414275  0.414275      8.000000
  0.414275  0.414275  0.414275      8.000000
 


--------------------------------------------------------------------------------------------------------




 Dimension of arrays:
   k-points           NKPTS =     64   k-points in BZ     NKDIM =     64   number of bands    NBANDS=     84
   number of dos      NEDOS =    301   number of ions     NIONS =     16
   non local maximal  LDIM  =      6   non local SUM 2l+1 LMDIM =     18
   total plane-waves  NPLWV =  46656
   max r-space proj   IRMAX =   4047   max aug-charges    IRDMAX=  25073
   dimension x,y,z NGX =    36 NGY =   36 NGZ =   36
   dimension x,y,z NGXF=    72 NGYF=   72 NGZF=   72
   support grid    NGXF=    72 NGYF=   72 NGZF=   72
   ions per type =               8   6   2
   NGX,Y,Z   is equivalent  to a cutoff of  10.04, 10.04, 10.04 a.u.
   NGXF,Y,Z  is equivalent  to a cutoff of  20.09, 20.09, 20.09 a.u.

 SYSTEM =  Testrun for NiMnIn                      
 POSCAR =  Ni2MnIn                                 

 Startparameter for this run:
   NWRITE =      2    write-flag & timer
   PREC   = normal    normal or accurate (medium, high low for compatibility)
   ISTART =      0    job   : 0-new  1-cont  2-samecut
   ICHARG =      2    charge: 1-file 2-atom 10-const
   ISPIN  =      2    spin polarized calculation?
   LNONCOLLINEAR =      F non collinear calculations
   LSORBIT =      F    spin-orbit coupling
   INIWAV =      1    electr: 0-lowe 1-rand  2-diag
   LASPH  =      F    aspherical Exc in radial PAW
   METAGGA=      F    non-selfconsistent MetaGGA calc.

 Electronic Relaxation 1
   ENCUT  =  550.0 eV  40.42 Ry    6.36 a.u.  11.39 11.39 11.39*2*pi/ulx,y,z
   ENINI  =  550.0     initial cutoff
   ENAUG  =  544.6 eV  augmentation charge cutoff
   NELM   =     60;   NELMIN=  2; NELMDL= -5     # of ELM steps 
   EDIFF  = 0.1E-04   stopping-criterion for ELM
   LREAL  =      T    real-space projection
   NLSPLINE    = F    spline interpolate recip. space projectors
   LCOMPAT=      F    compatible to vasp.4.4
   GGA_COMPAT  = T    GGA compatible to vasp.4.4-vasp.4.6
   LMAXPAW     = -100 max onsite density
   LMAXMIX     =    2 max onsite mixed and CHGCAR
   VOSKOWN=      0    Vosko Wilk Nusair interpolation
   ROPT   =   -0.00050  -0.00050  -0.00050
 Ionic relaxation
   EDIFFG = -.1E-01   stopping-criterion for IOM
   NSW    =   1000    number of steps for IOM
   NBLOCK =      1;   KBLOCK =   1000    inner block; outer block 
   IBRION =      2    ionic relax: 0-MD 1-quasi-New 2-CG
   NFREE  =      1    steps in history (QN), initial steepest desc. (CG)
   ISIF   =      2    stress and relaxation
   IWAVPR =     11    prediction:  0-non 1-charg 2-wave 3-comb
   ISYM   =      2    0-nonsym 1-usesym 2-fastsym
   LCORR  =      T    Harris-Foulkes like correction to forces

   POTIM  = 0.5000    time-step for ionic-motion
   TEIN   =    0.0    initial temperature
   TEBEG  =    0.0;   TEEND  =   0.0 temperature during run
   SMASS  =  -3.00    Nose mass-parameter (am)
   estimated Nose-frequenzy (Omega)   =  0.10E-29 period in steps =****** mass=  -0.811E-27a.u.
   SCALEE = 1.0000    scale energy and forces
   NPACO  =    256;   APACO  = 16.0  distance and # of slots for P.C.
   PSTRESS=    0.0 pullay stress

  Mass of Ions in am
   POMASS =  58.69 54.94114.82
  Ionic Valenz
   ZVAL   =  10.00  7.00  3.00
  Atomic Wigner-Seitz radii
   RWIGS  =  -1.00 -1.00 -1.00
  virtual crystal weights 
   VCA    =   1.00  1.00  1.00
   NELECT =     128.0000    total number of electrons
   NUPDOWN=      -1.0000    fix difference up-down

 DOS related values:
   EMIN   =  10.00;   EMAX   =-10.00  energy-range for DOS
   EFERMI =   0.00
   ISMEAR =     0;   SIGMA  =   0.02  broadening in eV -4-tet -1-fermi 0-gaus

 Electronic relaxation 2 (details)
   IALGO  =     68    algorithm
   LDIAG  =      T    sub-space diagonalisation (order eigenvalues)
   LSUBROT=      F    optimize rotation matrix (better conditioning)
   TURBO    =      0    0=normal 1=particle mesh
   IRESTART =      0    0=no restart 2=restart with 2 vectors
   NREBOOT  =      0    no. of reboots
   NMIN     =      0    reboot dimension
   EREF     =   0.00    reference energy to select bands
   IMIX   =      4    mixing-type and parameters
     AMIX     =   0.40;   BMIX     =  1.00
     AMIX_MAG =   1.60;   BMIX_MAG =  1.00
     AMIN     =   0.10
     WC   =   100.;   INIMIX=   1;  MIXPRE=   1;  MAXMIX= -45

 Intra band minimization:
   WEIMIN = 0.0010     energy-eigenvalue tresh-hold
   EBREAK =  0.30E-07  absolut break condition
   DEPER  =   0.30     relativ break condition  

   TIME   =   0.40     timestep for ELM

  volume/ion in A,a.u.               =      13.22        89.24
  Fermi-wavevector in a.u.,A,eV,Ry     =   1.384589  2.616494 26.083547  1.917087
  Thomas-Fermi vector in A             =   2.509079

 Write flags
   LWAVE        =      F    write WAVECAR
   LDOWNSAMPLE  =      F    k-point downsampling of WAVECAR
   LCHARG       =      T    write CHGCAR
   LVTOT        =      F    write LOCPOT, total local potential
   LVHAR        =      F    write LOCPOT, Hartree potential only
   LELF         =      F    write electronic localiz. function (ELF)
   LORBIT       =     11    0 simple, 1 ext, 2 COOP (PROOUT), +10 PAW based schemes


 Dipole corrections
   LMONO  =      F    monopole corrections only (constant potential shift)
   LDIPOL =      F    correct potential (dipole corrections)
   IDIPOL =      0    1-x, 2-y, 3-z, 4-all directions 
   EPSILON=  1.0000000 bulk dielectric constant

 Exchange correlation treatment:
   GGA     =    --    GGA type
   LEXCH   =     8    internal setting for exchange type
   VOSKOWN=      0    Vosko Wilk Nusair interpolation
   LHFCALC =     F    Hartree Fock is set to
   LHFONE  =     F    Hartree Fock one center treatment
   AEXX    =    0.0000 exact exchange contribution

 Linear response parameters
   LEPSILON=     F    determine dielectric tensor
   LRPA    =     F    only Hartree local field effects (RPA)
   LNABLA  =     F    use nabla operator in PAW spheres
   LVEL    =     F    velocity operator in full k-point grid
   LINTERFAST=   F  fast interpolation
   KINTER  =     0    interpolate to denser k-point grid
   CSHIFT  =0.1000    complex shift for real part using Kramers Kronig
   OMEGAMAX=  -1.0    maximum frequency
   DEG_THRESHOLD= 0.2000000E-02 threshold for treating states as degnerate
   RTIME   =   -0.100 relaxation time in fs
  (WPLASMAI=    0.000 imaginary part of plasma frequency in eV, 0.658/RTIME)
   DFIELD  = 0.0000000 0.0000000 0.0000000 field for delta impulse in time

 Orbital magnetization related:
   ORBITALMAG=     F  switch on orbital magnetization
   LCHIMAG   =     F  perturbation theory with respect to B field
   DQ        =  0.001000  dq finite difference perturbation B field
   LLRAUG    =     F  two centre corrections for induced B field



--------------------------------------------------------------------------------------------------------


 conjugate gradient relaxation of ions
 charge density and potential will be updated during run
 spin polarized calculation
 RMM-DIIS sequential band-by-band and
  variant of blocked Davidson during initial phase
 perform sub-space diagonalisation
    before iterative eigenvector-optimisation
 modified Broyden-mixing scheme, WC =      100.0
 initial mixing is a Kerker type mixing with AMIX =  0.4000 and BMIX =      1.0000
 Hartree-type preconditioning will be used
 using additional bands           20
 real space projection scheme for non local part
 use partial core corrections
 calculate Harris-corrections to forces   (improved forces if not selfconsistent)
 use gradient corrections 
 use of overlap-Matrix (Vanderbilt PP)
 Gauss-broadening in eV      SIGMA  =   0.02


--------------------------------------------------------------------------------------------------------


  energy-cutoff  :      550.00
  volume of cell :      211.58
      direct lattice vectors                 reciprocal lattice vectors
     5.958779071  0.000000000  0.000000000     0.167819613  0.000000000  0.000000000
     0.000000000  5.958779071  0.000000000     0.000000000  0.167819613  0.000000000
     0.000000000  0.000000000  5.958779071     0.000000000  0.000000000  0.167819613

  length of vectors
     5.958779071  5.958779071  5.958779071     0.167819613  0.167819613  0.167819613



 k-points in units of 2pi/SCALE and weight: k-points                                
   0.00000000  0.00000000  0.00000000       0.003
   0.13809157  0.00000000  0.00000000       0.006
   0.27618314  0.00000000  0.00000000       0.006
   0.41427470  0.00000000  0.00000000       0.006
   0.00000000  0.13809157  0.00000000       0.006
   0.13809157  0.13809157  0.00000000       0.012
   0.27618314  0.13809157  0.00000000       0.012
   0.41427470  0.13809157  0.00000000       0.012
   0.00000000  0.27618314  0.00000000       0.006
   0.13809157  0.27618314  0.00000000       0.012
   0.27618314  0.27618314  0.00000000       0.012
   0.41427470  0.27618314  0.00000000       0.012
   0.00000000  0.41427470  0.00000000       0.006
   0.13809157  0.41427470  0.00000000       0.012
   0.27618314  0.41427470  0.00000000       0.012
   0.41427470  0.41427470  0.00000000       0.012
   0.00000000  0.00000000  0.13809157       0.006
   0.13809157  0.00000000  0.13809157       0.012
   0.27618314  0.00000000  0.13809157       0.012
   0.41427470  0.00000000  0.13809157       0.012
   0.00000000  0.13809157  0.13809157       0.012
   0.13809157  0.13809157  0.13809157       0.023
   0.27618314  0.13809157  0.13809157       0.023
   0.41427470  0.13809157  0.13809157       0.023
   0.00000000  0.27618314  0.13809157       0.012
   0.13809157  0.27618314  0.13809157       0.023
   0.27618314  0.27618314  0.13809157       0.023
   0.41427470  0.27618314  0.13809157       0.023
   0.00000000  0.41427470  0.13809157       0.012
   0.13809157  0.41427470  0.13809157       0.023
   0.27618314  0.41427470  0.13809157       0.023
   0.41427470  0.41427470  0.13809157       0.023
   0.00000000  0.00000000  0.27618314       0.006
   0.13809157  0.00000000  0.27618314       0.012
   0.27618314  0.00000000  0.27618314       0.012
   0.41427470  0.00000000  0.27618314       0.012
   0.00000000  0.13809157  0.27618314       0.012
   0.13809157  0.13809157  0.27618314       0.023
   0.27618314  0.13809157  0.27618314       0.023
   0.41427470  0.13809157  0.27618314       0.023
   0.00000000  0.27618314  0.27618314       0.012
   0.13809157  0.27618314  0.27618314       0.023
   0.27618314  0.27618314  0.27618314       0.023
   0.41427470  0.27618314  0.27618314       0.023
   0.00000000  0.41427470  0.27618314       0.012
   0.13809157  0.41427470  0.27618314       0.023
   0.27618314  0.41427470  0.27618314       0.023
   0.41427470  0.41427470  0.27618314       0.023
   0.00000000  0.00000000  0.41427470       0.006
   0.13809157  0.00000000  0.41427470       0.012
   0.27618314  0.00000000  0.41427470       0.012
   0.41427470  0.00000000  0.41427470       0.012
   0.00000000  0.13809157  0.41427470       0.012
   0.13809157  0.13809157  0.41427470       0.023
   0.27618314  0.13809157  0.41427470       0.023
   0.41427470  0.13809157  0.41427470       0.023
   0.00000000  0.27618314  0.41427470       0.012
   0.13809157  0.27618314  0.41427470       0.023
   0.27618314  0.27618314  0.41427470       0.023
   0.41427470  0.27618314  0.41427470       0.023
   0.00000000  0.41427470  0.41427470       0.012
   0.13809157  0.41427470  0.41427470       0.023
   0.27618314  0.41427470  0.41427470       0.023
   0.41427470  0.41427470  0.41427470       0.023

 k-points in reciprocal lattice and weights: k-points                                
   0.00000000  0.00000000  0.00000000       0.003
   0.14285714  0.00000000  0.00000000       0.006
   0.28571429  0.00000000  0.00000000       0.006
   0.42857143  0.00000000  0.00000000       0.006
   0.00000000  0.14285714  0.00000000       0.006
   0.14285714  0.14285714  0.00000000       0.012
   0.28571429  0.14285714  0.00000000       0.012
   0.42857143  0.14285714  0.00000000       0.012
   0.00000000  0.28571429  0.00000000       0.006
   0.14285714  0.28571429  0.00000000       0.012
   0.28571429  0.28571429  0.00000000       0.012
   0.42857143  0.28571429  0.00000000       0.012
   0.00000000  0.42857143  0.00000000       0.006
   0.14285714  0.42857143  0.00000000       0.012
   0.28571429  0.42857143  0.00000000       0.012
   0.42857143  0.42857143  0.00000000       0.012
   0.00000000  0.00000000  0.14285714       0.006
   0.14285714  0.00000000  0.14285714       0.012
   0.28571429  0.00000000  0.14285714       0.012
   0.42857143  0.00000000  0.14285714       0.012
   0.00000000  0.14285714  0.14285714       0.012
   0.14285714  0.14285714  0.14285714       0.023
   0.28571429  0.14285714  0.14285714       0.023
   0.42857143  0.14285714  0.14285714       0.023
   0.00000000  0.28571429  0.14285714       0.012
   0.14285714  0.28571429  0.14285714       0.023
   0.28571429  0.28571429  0.14285714       0.023
   0.42857143  0.28571429  0.14285714       0.023
   0.00000000  0.42857143  0.14285714       0.012
   0.14285714  0.42857143  0.14285714       0.023
   0.28571429  0.42857143  0.14285714       0.023
   0.42857143  0.42857143  0.14285714       0.023
   0.00000000  0.00000000  0.28571429       0.006
   0.14285714  0.00000000  0.28571429       0.012
   0.28571429  0.00000000  0.28571429       0.012
   0.42857143  0.00000000  0.28571429       0.012
   0.00000000  0.14285714  0.28571429       0.012
   0.14285714  0.14285714  0.28571429       0.023
   0.28571429  0.14285714  0.28571429       0.023
   0.42857143  0.14285714  0.28571429       0.023
   0.00000000  0.28571429  0.28571429       0.012
   0.14285714  0.28571429  0.28571429       0.023
   0.28571429  0.28571429  0.28571429       0.023
   0.42857143  0.28571429  0.28571429       0.023
   0.00000000  0.42857143  0.28571429       0.012
   0.14285714  0.42857143  0.28571429       0.023
   0.28571429  0.42857143  0.28571429       0.023
   0.42857143  0.42857143  0.28571429       0.023
   0.00000000  0.00000000  0.42857143       0.006
   0.14285714  0.00000000  0.42857143       0.012
   0.28571429  0.00000000  0.42857143       0.012
   0.42857143  0.00000000  0.42857143       0.012
   0.00000000  0.14285714  0.42857143       0.012
   0.14285714  0.14285714  0.42857143       0.023
   0.28571429  0.14285714  0.42857143       0.023
   0.42857143  0.14285714  0.42857143       0.023
   0.00000000  0.28571429  0.42857143       0.012
   0.14285714  0.28571429  0.42857143       0.023
   0.28571429  0.28571429  0.42857143       0.023
   0.42857143  0.28571429  0.42857143       0.023
   0.00000000  0.42857143  0.42857143       0.012
   0.14285714  0.42857143  0.42857143       0.023
   0.28571429  0.42857143  0.42857143       0.023
   0.42857143  0.42857143  0.42857143       0.023

 position of ions in fractional coordinates (direct lattice) 
   0.24998506  0.24999097  0.27126750
   0.75001494  0.24999097  0.27126750
   0.24998506  0.75000903  0.27126750
   0.75001494  0.75000903  0.27126750
   0.24998506  0.24999097  0.72873250
   0.75001494  0.24999097  0.72873250
   0.24998506  0.75000903  0.72873250
   0.75001494  0.75000903  0.72873250
   0.50000000  0.00000000  0.00000000
   0.00000000  0.50000000  0.00000000
   0.00000000  0.00000000  0.50000000
   0.50000000  0.00000000  0.50000000
   0.50000000  0.50000000  0.50000000
   0.00000000  0.50000000  0.50000000
   0.00000000  0.00000000  0.00000000
   0.50000000  0.50000000  0.00000000

 position of ions in cartesian coordinates  (Angst):
   1.48960577  1.48964095  1.61642313
   4.46917330  1.48964095  1.61642313
   1.48960577  4.46913812  1.61642313
   4.46917330  4.46913812  1.61642313
   1.48960577  1.48964095  4.34235594
   4.46917330  1.48964095  4.34235594
   1.48960577  4.46913812  4.34235594
   4.46917330  4.46913812  4.34235594
   2.97938954  0.00000000  0.00000000
   0.00000000  2.97938954  0.00000000
   0.00000000  0.00000000  2.97938954
   2.97938954  0.00000000  2.97938954
   2.97938954  2.97938954  2.97938954
   0.00000000  2.97938954  2.97938954
   0.00000000  0.00000000  0.00000000
   2.97938954  2.97938954  0.00000000



--------------------------------------------------------------------------------------------------------


 k-point  1 :   0.0000 0.0000 0.0000  plane waves:    6187
 k-point  2 :   0.1429 0.0000 0.0000  plane waves:    6195
 k-point  3 :   0.2857 0.0000 0.0000  plane waves:    6195
 k-point  4 :   0.4286 0.0000 0.0000  plane waves:    6202
 k-point  5 :   0.0000 0.1429 0.0000  plane waves:    6195
 k-point  6 :   0.1429 0.1429 0.0000  plane waves:    6204
 k-point  7 :   0.2857 0.1429 0.0000  plane waves:    6222
 k-point  8 :   0.4286 0.1429 0.0000  plane waves:    6199
 k-point  9 :   0.0000 0.2857 0.0000  plane waves:    6195
 k-point 10 :   0.1429 0.2857 0.0000  plane waves:    6222
 k-point 11 :   0.2857 0.2857 0.0000  plane waves:    6202
 k-point 12 :   0.4286 0.2857 0.0000  plane waves:    6183
 k-point 13 :   0.0000 0.4286 0.0000  plane waves:    6202
 k-point 14 :   0.1429 0.4286 0.0000  plane waves:    6199
 k-point 15 :   0.2857 0.4286 0.0000  plane waves:    6183
 k-point 16 :   0.4286 0.4286 0.0000  plane waves:    6200
 k-point 17 :   0.0000 0.0000 0.1429  plane waves:    6195
 k-point 18 :   0.1429 0.0000 0.1429  plane waves:    6204
 k-point 19 :   0.2857 0.0000 0.1429  plane waves:    6222
 k-point 20 :   0.4286 0.0000 0.1429  plane waves:    6199
 k-point 21 :   0.0000 0.1429 0.1429  plane waves:    6204
 k-point 22 :   0.1429 0.1429 0.1429  plane waves:    6193
 k-point 23 :   0.2857 0.1429 0.1429  plane waves:    6196
 k-point 24 :   0.4286 0.1429 0.1429  plane waves:    6208
 k-point 25 :   0.0000 0.2857 0.1429  plane waves:    6222
 k-point 26 :   0.1429 0.2857 0.1429  plane waves:    6196
 k-point 27 :   0.2857 0.2857 0.1429  plane waves:    6190
 k-point 28 :   0.4286 0.2857 0.1429  plane waves:    6194
 k-point 29 :   0.0000 0.4286 0.1429  plane waves:    6199
 k-point 30 :   0.1429 0.4286 0.1429  plane waves:    6208
 k-point 31 :   0.2857 0.4286 0.1429  plane waves:    6194
 k-point 32 :   0.4286 0.4286 0.1429  plane waves:    6213
 k-point 33 :   0.0000 0.0000 0.2857  plane waves:    6195
 k-point 34 :   0.1429 0.0000 0.2857  plane waves:    6222
 k-point 35 :   0.2857 0.0000 0.2857  plane waves:    6202
 k-point 36 :   0.4286 0.0000 0.2857  plane waves:    6183
 k-point 37 :   0.0000 0.1429 0.2857  plane waves:    6222
 k-point 38 :   0.1429 0.1429 0.2857  plane waves:    6196
 k-point 39 :   0.2857 0.1429 0.2857  plane waves:    6190
 k-point 40 :   0.4286 0.1429 0.2857  plane waves:    6194
 k-point 41 :   0.0000 0.2857 0.2857  plane waves:    6202
 k-point 42 :   0.1429 0.2857 0.2857  plane waves:    6190
 k-point 43 :   0.2857 0.2857 0.2857  plane waves:    6211
 k-point 44 :   0.4286 0.2857 0.2857  plane waves:    6196
 k-point 45 :   0.0000 0.4286 0.2857  plane waves:    6183
 k-point 46 :   0.1429 0.4286 0.2857  plane waves:    6194
 k-point 47 :   0.2857 0.4286 0.2857  plane waves:    6196
 k-point 48 :   0.4286 0.4286 0.2857  plane waves:    6178
 k-point 49 :   0.0000 0.0000 0.4286  plane waves:    6202
 k-point 50 :   0.1429 0.0000 0.4286  plane waves:    6199
 k-point 51 :   0.2857 0.0000 0.4286  plane waves:    6183
 k-point 52 :   0.4286 0.0000 0.4286  plane waves:    6200
 k-point 53 :   0.0000 0.1429 0.4286  plane waves:    6199
 k-point 54 :   0.1429 0.1429 0.4286  plane waves:    6208
 k-point 55 :   0.2857 0.1429 0.4286  plane waves:    6194
 k-point 56 :   0.4286 0.1429 0.4286  plane waves:    6213
 k-point 57 :   0.0000 0.2857 0.4286  plane waves:    6183
 k-point 58 :   0.1429 0.2857 0.4286  plane waves:    6194
 k-point 59 :   0.2857 0.2857 0.4286  plane waves:    6196
 k-point 60 :   0.4286 0.2857 0.4286  plane waves:    6178
 k-point 61 :   0.0000 0.4286 0.4286  plane waves:    6200
 k-point 62 :   0.1429 0.4286 0.4286  plane waves:    6213
 k-point 63 :   0.2857 0.4286 0.4286  plane waves:    6178
 k-point 64 :   0.4286 0.4286 0.4286  plane waves:    6143

 maximum and minimum number of plane-waves per node :      6222     6143

 maximum number of plane-waves:      6222
 maximum index in each direction: 
   IXMAX=   11   IYMAX=   11   IZMAX=   11
   IXMIN=  -11   IYMIN=  -11   IZMIN=  -11


 serial   3D FFT for wavefunctions
 parallel 3D FFT for charge:
    minimum data exchange during FFTs selected (reduces bandwidth)


 total amount of memory used by VASP MPI-rank0   138552. kBytes
=======================================================================

   base      :      30000. kBytes
   nonlr-proj:       6800. kBytes
   fftplans  :       1269. kBytes
   grid      :       6573. kBytes
   one-center:        497. kBytes
   wavefun   :      93413. kBytes

     INWAV:  cpu time    0.0000: real time    0.0000
 Broyden mixing: mesh for mixing (old mesh)
   NGX = 23   NGY = 23   NGZ = 23
  (NGX  = 72   NGY  = 72   NGZ  = 72)
  gives a total of  12167 points

 initial charge density was supplied:
 charge density of overlapping atoms calculated
 number of electron     128.0000000 magnetization       0.8000000
 keeping initial charge density in first step


--------------------------------------------------------------------------------------------------------


 Maximum index for non-local projection operator         3887
 Maximum index for augmentation-charges         2111 (set IRDMAX)


--------------------------------------------------------------------------------------------------------


 First call to EWALD:  gamma=   0.297
 Maximum number of real-space cells 3x 3x 3
 Maximum number of reciprocal cells 3x 3x 3

    FEWALD:  cpu time    0.0022: real time    0.0022


--------------------------------------- Iteration      1(   1)  ---------------------------------------


    POTLOK:  cpu time    0.1049: real time    0.1112
    SETDIJ:  cpu time    0.0393: real time    0.0393
     EDDAV:  cpu time   39.0957: real time   39.1417
       DOS:  cpu time    0.0055: real time    0.0055
    --------------------------------------------
      LOOP:  cpu time   39.2454: real time   39.2977

 eigenvalue-minimisations  : 21504
 total energy-change (2. order) : 0.1068562E+04  (-0.5417182E+04)
 number of electron     128.0000000 magnetization       0.8000000
 augmentation part      128.0000000 magnetization       0.8000000

 Free energy of the ion-electron system (eV)
  ---------------------------------------------------
  alpha Z        PSCENC =       531.83327457
  Ewald energy   TEWEN  =     -9262.89702377
  -Hartree energ DENC   =     -3164.04730641
  -exchange      EXHF   =         0.00000000
  -V(xc)+E(xc)   XCENC  =        78.43674028
  PAW double counting   =     10320.96726947   -10647.99417394
  entropy T*S    EENTRO =        -0.00098218
  eigenvalues    EBANDS =      1982.80182542
  atomic energy  EATOM  =     11229.46195210
  Solvation  Ediel_sol  =         0.00000000
  ---------------------------------------------------
  free energy    TOTEN  =      1068.56157553 eV

  energy without entropy =     1068.56255771  energy(sigma->0) =     1068.56206662


--------------------------------------------------------------------------------------------------------




--------------------------------------- Iteration      1(   2)  ---------------------------------------


     EDDAV:  cpu time   38.0261: real time   38.0639
       DOS:  cpu time    0.0057: real time    0.0058
    --------------------------------------------
      LOOP:  cpu time   38.0317: real time   38.0697

 eigenvalue-minimisations  : 21504
 total energy-change (2. order) :-0.1066784E+04  (-0.1033755E+04)
 number of electron     128.0000000 magnetization       0.8000000
 augmentation part      128.0000000 magnetization       0.8000000

 Free energy of the ion-electron system (eV)
  ---------------------------------------------------
  alpha Z        PSCENC =       531.83327457
  Ewald energy   TEWEN  =     -9262.89702377
  -Hartree energ DENC   =     -3164.04730641
  -exchange      EXHF   =         0.00000000
  -V(xc)+E(xc)   XCENC  =        78.43674028
  PAW double counting   =     10320.96726947   -10647.99417394
  entropy T*S    EENTRO =        -0.00238602
  eigenvalues    EBANDS =       916.01878242
  atomic energy  EATOM  =     11229.46195210
  Solvation  Ediel_sol  =         0.00000000
  ---------------------------------------------------
  free energy    TOTEN  =         1.77712870 eV

  energy without entropy =        1.77951471  energy(sigma->0) =        1.77832171


--------------------------------------------------------------------------------------------------------




--------------------------------------- Iteration      1(   3)  ---------------------------------------


     EDDAV:  cpu time   41.7629: real time   41.8180
       DOS:  cpu time    0.0056: real time    0.0058
    --------------------------------------------
      LOOP:  cpu time   41.7685: real time   41.8238

 eigenvalue-minimisations  : 24024
 total energy-change (2. order) :-0.1111711E+03  (-0.1001921E+03)
 number of electron     128.0000000 magnetization       0.8000000
 augmentation part      128.0000000 magnetization       0.8000000

 Free energy of the ion-electron system (eV)
  ---------------------------------------------------
  alpha Z        PSCENC =       531.83327457
  Ewald energy   TEWEN  =     -9262.89702377
  -Hartree energ DENC   =     -3164.04730641
  -exchange      EXHF   =         0.00000000
  -V(xc)+E(xc)   XCENC  =        78.43674028
  PAW double counting   =     10320.96726947   -10647.99417394
  entropy T*S    EENTRO =        -0.00278710
  eigenvalues    EBANDS =       804.84806936
  atomic energy  EATOM  =     11229.46195210
  Solvation  Ediel_sol  =         0.00000000
  ---------------------------------------------------
  free energy    TOTEN  =      -109.39398545 eV

  energy without entropy =     -109.39119835  energy(sigma->0) =     -109.39259190


--------------------------------------------------------------------------------------------------------




--------------------------------------- Iteration      1(   4)  ---------------------------------------


     EDDAV:  cpu time   54.0130: real time   54.0641
       DOS:  cpu time    0.0056: real time    0.0057
    --------------------------------------------
      LOOP:  cpu time   54.0187: real time   54.0698

 eigenvalue-minimisations  : 32916
 total energy-change (2. order) :-0.6903381E+01  (-0.6527052E+01)
 number of electron     128.0000000 magnetization       0.8000000
 augmentation part      128.0000000 magnetization       0.8000000

 Free energy of the ion-electron system (eV)
  ---------------------------------------------------
  alpha Z        PSCENC =       531.83327457
  Ewald energy   TEWEN  =     -9262.89702377
  -Hartree energ DENC   =     -3164.04730641
  -exchange      EXHF   =         0.00000000
  -V(xc)+E(xc)   XCENC  =        78.43674028
  PAW double counting   =     10320.96726947   -10647.99417394
  entropy T*S    EENTRO =        -0.00335394
  eigenvalues    EBANDS =       797.94525562
  atomic energy  EATOM  =     11229.46195210
  Solvation  Ediel_sol  =         0.00000000
  ---------------------------------------------------
  free energy    TOTEN  =      -116.29736603 eV

  energy without entropy =     -116.29401209  energy(sigma->0) =     -116.29568906


--------------------------------------------------------------------------------------------------------




--------------------------------------- Iteration      1(   5)  ---------------------------------------


     EDDAV:  cpu time   52.0454: real time   52.0986
       DOS:  cpu time    0.0059: real time    0.0060
    CHARGE:  cpu time    1.0550: real time    1.0556
    MIXING:  cpu time    0.0016: real time    0.0016
    --------------------------------------------
      LOOP:  cpu time   53.1079: real time   53.1619

 eigenvalue-minimisations  : 31800
 total energy-change (2. order) :-0.2237980E+00  (-0.2228209E+00)
 number of electron     128.0000002 magnetization       0.3597568
 augmentation part       60.6712598 magnetization       0.3248316

 Broyden mixing:
  rms(total) = 0.34496E+01    rms(broyden)= 0.34496E+01
  rms(prec ) = 0.53052E+01
  weight for this iteration     100.00

 Free energy of the ion-electron system (eV)
  ---------------------------------------------------
  alpha Z        PSCENC =       531.83327457
  Ewald energy   TEWEN  =     -9262.89702377
  -Hartree energ DENC   =     -3164.04730641
  -exchange      EXHF   =         0.00000000
  -V(xc)+E(xc)   XCENC  =        78.43674028
  PAW double counting   =     10320.96726947   -10647.99417394
  entropy T*S    EENTRO =        -0.00330550
  eigenvalues    EBANDS =       797.72140920
  atomic energy  EATOM  =     11229.46195210
  Solvation  Ediel_sol  =         0.00000000
  ---------------------------------------------------
  free energy    TOTEN  =      -116.52116400 eV

  energy without entropy =     -116.51785850  energy(sigma->0) =     -116.51951125


--------------------------------------------------------------------------------------------------------




--------------------------------------- Iteration      1(   6)  ---------------------------------------


    POTLOK:  cpu time    0.1123: real time    0.1165
    SETDIJ:  cpu time    0.0380: real time    0.0381
    EDDIAG:  cpu time    5.2990: real time    5.3040
  RMM-DIIS:  cpu time   17.0186: real time   17.0451
    ORTHCH:  cpu time    1.0098: real time    1.0107
       DOS:  cpu time    0.0059: real time    0.0061
    CHARGE:  cpu time    1.0611: real time    1.0618
    MIXING:  cpu time    0.0018: real time    0.0018
    --------------------------------------------
      LOOP:  cpu time   24.5464: real time   24.5840

 eigenvalue-minimisations  : 21504
 total energy-change (2. order) : 0.7151894E+01  (-0.1601309E+02)
 number of electron     128.0000085 magnetization       0.3770019
 augmentation part       69.5108808 magnetization       0.2379399

 Broyden mixing:
  rms(total) = 0.44372E+01    rms(broyden)= 0.44371E+01
  rms(prec ) = 0.57522E+01
  weight for this iteration     100.00

 eigenvalues of (default mixing * dielectric matrix)
  average eigenvalue GAMMA=   0.2234
  0.2234

 Free energy of the ion-electron system (eV)
  ---------------------------------------------------
  alpha Z        PSCENC =       531.83327457
  Ewald energy   TEWEN  =     -9262.89702377
  -Hartree energ DENC   =     -2931.35988377
  -exchange      EXHF   =         0.00000000
  -V(xc)+E(xc)   XCENC  =        66.22863561
  PAW double counting   =     11131.89617907   -11425.38713345
  entropy T*S    EENTRO =        -0.00348071
  eigenvalues    EBANDS =       550.85821047
  atomic energy  EATOM  =     11229.46195210
  Solvation  Ediel_sol  =         0.00000000
  ---------------------------------------------------
  free energy    TOTEN  =      -109.36926990 eV

  energy without entropy =     -109.36578918  energy(sigma->0) =     -109.36752954


--------------------------------------------------------------------------------------------------------




--------------------------------------- Iteration      1(   7)  ---------------------------------------


    POTLOK:  cpu time    0.0971: real time    0.0973
    SETDIJ:  cpu time    0.0358: real time    0.0358
    EDDIAG:  cpu time    5.2230: real time    5.2278
  RMM-DIIS:  cpu time   16.9109: real time   16.9243
    ORTHCH:  cpu time    1.0065: real time    1.0075
       DOS:  cpu time    0.0058: real time    0.0061
    CHARGE:  cpu time    1.0549: real time    1.0556
    MIXING:  cpu time    0.0017: real time    0.0017
    --------------------------------------------
      LOOP:  cpu time   24.3356: real time   24.3560

 eigenvalue-minimisations  : 21531
 total energy-change (2. order) : 0.3902813E+00  (-0.2718603E+01)
 number of electron     128.0000008 magnetization       0.3155249
 augmentation part       70.4777116 magnetization       0.3705217

 Broyden mixing:
  rms(total) = 0.29080E+01    rms(broyden)= 0.29079E+01
  rms(prec ) = 0.46376E+01
  weight for this iteration     100.00

 eigenvalues of (default mixing * dielectric matrix)
  average eigenvalue GAMMA=   0.4728
  0.4728  0.4728

 Free energy of the ion-electron system (eV)
  ---------------------------------------------------
  alpha Z        PSCENC =       531.83327457
  Ewald energy   TEWEN  =     -9262.89702377
  -Hartree energ DENC   =     -2920.25257265
  -exchange      EXHF   =         0.00000000
  -V(xc)+E(xc)   XCENC  =        67.45452030
  PAW double counting   =     11432.73282035   -11732.61132581
  entropy T*S    EENTRO =        -0.00128596
  eigenvalues    EBANDS =       545.30065232
  atomic energy  EATOM  =     11229.46195210
  Solvation  Ediel_sol  =         0.00000000
  ---------------------------------------------------
  free energy    TOTEN  =      -108.97898856 eV

  energy without entropy =     -108.97770259  energy(sigma->0) =     -108.97834558


--------------------------------------------------------------------------------------------------------




--------------------------------------- Iteration      1(   8)  ---------------------------------------


    POTLOK:  cpu time    0.0970: real time    0.0972
    SETDIJ:  cpu time    0.0356: real time    0.0357
    EDDIAG:  cpu time    5.2576: real time    5.2642
  RMM-DIIS:  cpu time   17.1116: real time   17.1257
    ORTHCH:  cpu time    1.0095: real time    1.0104
       DOS:  cpu time    0.0061: real time    0.0063
    CHARGE:  cpu time    1.0582: real time    1.0589
    MIXING:  cpu time    0.0018: real time    0.0018
    --------------------------------------------
      LOOP:  cpu time   24.5774: real time   24.6002

 eigenvalue-minimisations  : 21516
 total energy-change (2. order) : 0.4204232E+01  (-0.2116019E+01)
 number of electron     128.0000069 magnetization       0.2398799
 augmentation part       66.9585449 magnetization       0.0982114

 Broyden mixing:
  rms(total) = 0.17467E+01    rms(broyden)= 0.17466E+01
  rms(prec ) = 0.30332E+01
  weight for this iteration     100.00

 eigenvalues of (default mixing * dielectric matrix)
  average eigenvalue GAMMA=   0.5347
  0.7357  0.6388  0.2295

 Free energy of the ion-electron system (eV)
  ---------------------------------------------------
  alpha Z        PSCENC =       531.83327457
  Ewald energy   TEWEN  =     -9262.89702377
  -Hartree energ DENC   =     -2986.99698784
  -exchange      EXHF   =         0.00000000
  -V(xc)+E(xc)   XCENC  =        72.91752387
  PAW double counting   =     11844.33187814   -12172.77072662
  entropy T*S    EENTRO =        -0.00251583
  eigenvalues    EBANDS =       639.34786912
  atomic energy  EATOM  =     11229.46195210
  Solvation  Ediel_sol  =         0.00000000
  ---------------------------------------------------
  free energy    TOTEN  =      -104.77475628 eV

  energy without entropy =     -104.77224044  energy(sigma->0) =     -104.77349836


--------------------------------------------------------------------------------------------------------




--------------------------------------- Iteration      1(   9)  ---------------------------------------


    POTLOK:  cpu time    0.1072: real time    0.1111
    SETDIJ:  cpu time    0.0375: real time    0.0376
    EDDIAG:  cpu time    5.3331: real time    5.3379
  RMM-DIIS:  cpu time   16.9712: real time   16.9883
    ORTHCH:  cpu time    1.0105: real time    1.0114
       DOS:  cpu time    0.0059: real time    0.0061
    CHARGE:  cpu time    1.0637: real time    1.0645
    MIXING:  cpu time    0.0019: real time    0.0019
    --------------------------------------------
      LOOP:  cpu time   24.5310: real time   24.5586

 eigenvalue-minimisations  : 21512
 total energy-change (2. order) : 0.1315192E+01  (-0.2239312E+00)
 number of electron     128.0000039 magnetization       0.1218871
 augmentation part       67.7697385 magnetization       0.1266813

 Broyden mixing:
  rms(total) = 0.79015E+00    rms(broyden)= 0.79007E+00
  rms(prec ) = 0.12143E+01
  weight for this iteration     100.00

 eigenvalues of (default mixing * dielectric matrix)
  average eigenvalue GAMMA=   0.6676
  1.3180  0.6497  0.5046  0.1980

 Free energy of the ion-electron system (eV)
  ---------------------------------------------------
  alpha Z        PSCENC =       531.83327457
  Ewald energy   TEWEN  =     -9262.89702377
  -Hartree energ DENC   =     -2973.15900374
  -exchange      EXHF   =         0.00000000
  -V(xc)+E(xc)   XCENC  =        73.33989428
  PAW double counting   =     12142.85117075   -12475.32430115
  entropy T*S    EENTRO =        -0.00188827
  eigenvalues    EBANDS =       630.43636111
  atomic energy  EATOM  =     11229.46195210
  Solvation  Ediel_sol  =         0.00000000
  ---------------------------------------------------
  free energy    TOTEN  =      -103.45956413 eV

  energy without entropy =     -103.45767586  energy(sigma->0) =     -103.45861999


--------------------------------------------------------------------------------------------------------




--------------------------------------- Iteration      1(  10)  ---------------------------------------


    POTLOK:  cpu time    0.0972: real time    0.0974
    SETDIJ:  cpu time    0.0355: real time    0.0356
    EDDIAG:  cpu time    5.2831: real time    5.2886
  RMM-DIIS:  cpu time   17.1363: real time   17.1494
    ORTHCH:  cpu time    1.0081: real time    1.0090
       DOS:  cpu time    0.0055: real time    0.0057
    CHARGE:  cpu time    1.0627: real time    1.0634
    MIXING:  cpu time    0.0020: real time    0.0020
    --------------------------------------------
      LOOP:  cpu time   24.6306: real time   24.6511

 eigenvalue-minimisations  : 21519
 total energy-change (2. order) :-0.7738489E-01  (-0.9941095E-01)
 number of electron     128.0000041 magnetization       0.0720489
 augmentation part       68.0226611 magnetization       0.0251605

 Broyden mixing:
  rms(total) = 0.67326E+00    rms(broyden)= 0.67325E+00
  rms(prec ) = 0.11378E+01
  weight for this iteration     100.00

 eigenvalues of (default mixing * dielectric matrix)
  average eigenvalue GAMMA=   0.6743
  1.6341  0.6971  0.5647  0.2021  0.2734

 Free energy of the ion-electron system (eV)
  ---------------------------------------------------
  alpha Z        PSCENC =       531.83327457
  Ewald energy   TEWEN  =     -9262.89702377
  -Hartree energ DENC   =     -2965.64451877
  -exchange      EXHF   =         0.00000000
  -V(xc)+E(xc)   XCENC  =        74.29468748
  PAW double counting   =     12461.45889768   -12798.87727708
  entropy T*S    EENTRO =        -0.00219722
  eigenvalues    EBANDS =       626.83525601
  atomic energy  EATOM  =     11229.46195210
  Solvation  Ediel_sol  =         0.00000000
  ---------------------------------------------------
  free energy    TOTEN  =      -103.53694901 eV

  energy without entropy =     -103.53475179  energy(sigma->0) =     -103.53585040


--------------------------------------------------------------------------------------------------------




--------------------------------------- Iteration      1(  11)  ---------------------------------------


    POTLOK:  cpu time    0.0993: real time    0.0995
    SETDIJ:  cpu time    0.0353: real time    0.0354
    EDDIAG:  cpu time    5.2954: real time    5.3032
  RMM-DIIS:  cpu time   17.2459: real time   17.2603
    ORTHCH:  cpu time    1.0108: real time    1.0116
       DOS:  cpu time    0.0056: real time    0.0058
    CHARGE:  cpu time    1.0664: real time    1.0671
    MIXING:  cpu time    0.0021: real time    0.0021
    --------------------------------------------
      LOOP:  cpu time   24.7609: real time   24.7851

 eigenvalue-minimisations  : 21538
 total energy-change (2. order) : 0.2834488E+00  (-0.4072685E-01)
 number of electron     128.0000046 magnetization       0.0238407
 augmentation part       67.6510232 magnetization       0.0383518

 Broyden mixing:
  rms(total) = 0.22709E+00    rms(broyden)= 0.22707E+00
  rms(prec ) = 0.29640E+00
  weight for this iteration     100.00

 eigenvalues of (default mixing * dielectric matrix)
  average eigenvalue GAMMA=   0.7158
  1.8974  0.7027  0.7027  0.5321  0.2029  0.2567

 Free energy of the ion-electron system (eV)
  ---------------------------------------------------
  alpha Z        PSCENC =       531.83327457
  Ewald energy   TEWEN  =     -9262.89702377
  -Hartree energ DENC   =     -2968.21607682
  -exchange      EXHF   =         0.00000000
  -V(xc)+E(xc)   XCENC  =        75.26309825
  PAW double counting   =     12689.80038378   -13032.08040778
  entropy T*S    EENTRO =        -0.00262950
  eigenvalues    EBANDS =       633.58392893
  atomic energy  EATOM  =     11229.46195210
  Solvation  Ediel_sol  =         0.00000000
  ---------------------------------------------------
  free energy    TOTEN  =      -103.25350025 eV

  energy without entropy =     -103.25087075  energy(sigma->0) =     -103.25218550


--------------------------------------------------------------------------------------------------------




--------------------------------------- Iteration      1(  12)  ---------------------------------------


    POTLOK:  cpu time    0.0973: real time    0.1036
    SETDIJ:  cpu time    0.0355: real time    0.0355
    EDDIAG:  cpu time    5.3209: real time    5.3265
  RMM-DIIS:  cpu time   18.0640: real time   18.0819
    ORTHCH:  cpu time    1.0106: real time    1.0117
       DOS:  cpu time    0.0059: real time    0.0059
    CHARGE:  cpu time    1.0948: real time    1.0957
    MIXING:  cpu time    0.0022: real time    0.0022
    --------------------------------------------
      LOOP:  cpu time   25.6313: real time   25.6631

 eigenvalue-minimisations  : 22633
 total energy-change (2. order) :-0.9446755E-02  (-0.1014040E-01)
 number of electron     128.0000046 magnetization      -0.0017379
 augmentation part       67.6582031 magnetization      -0.0517363

 Broyden mixing:
  rms(total) = 0.20367E+00    rms(broyden)= 0.20366E+00
  rms(prec ) = 0.30379E+00
  weight for this iteration     100.00

 eigenvalues of (default mixing * dielectric matrix)
  average eigenvalue GAMMA=   0.7387
  2.1867  0.8417  0.8417  0.5438  0.2014  0.2947  0.2605

 Free energy of the ion-electron system (eV)
  ---------------------------------------------------
  alpha Z        PSCENC =       531.83327457
  Ewald energy   TEWEN  =     -9262.89702377
  -Hartree energ DENC   =     -2966.31731744
  -exchange      EXHF   =         0.00000000
  -V(xc)+E(xc)   XCENC  =        75.42933589
  PAW double counting   =     12786.12896950   -13129.61786060
  entropy T*S    EENTRO =        -0.00266725
  eigenvalues    EBANDS =       632.71839000
  atomic energy  EATOM  =     11229.46195210
  Solvation  Ediel_sol  =         0.00000000
  ---------------------------------------------------
  free energy    TOTEN  =      -103.26294701 eV

  energy without entropy =     -103.26027976  energy(sigma->0) =     -103.26161338


--------------------------------------------------------------------------------------------------------




--------------------------------------- Iteration      1(  13)  ---------------------------------------


    POTLOK:  cpu time    0.0979: real time    0.0980
    SETDIJ:  cpu time    0.0354: real time    0.0354
    EDDIAG:  cpu time    5.3512: real time    5.3570
  RMM-DIIS:  cpu time   17.8453: real time   17.8697
    ORTHCH:  cpu time    1.0087: real time    1.0098
       DOS:  cpu time    0.0057: real time    0.0057
    CHARGE:  cpu time    1.0801: real time    1.0809
    MIXING:  cpu time    0.0023: real time    0.0023
    --------------------------------------------
      LOOP:  cpu time   25.4265: real time   25.4588

 eigenvalue-minimisations  : 22109
 total energy-change (2. order) : 0.1275064E-01  (-0.4272693E-02)
 number of electron     128.0000046 magnetization      -0.0118340
 augmentation part       67.7566212 magnetization       0.0008624

 Broyden mixing:
  rms(total) = 0.99666E-01    rms(broyden)= 0.99663E-01
  rms(prec ) = 0.12748E+00
  weight for this iteration     100.00

 eigenvalues of (default mixing * dielectric matrix)
  average eigenvalue GAMMA=   0.7463
  2.3191  0.9122  0.9122  0.5515  0.5515  0.2020  0.2634  0.2584

 Free energy of the ion-electron system (eV)
  ---------------------------------------------------
  alpha Z        PSCENC =       531.83327457
  Ewald energy   TEWEN  =     -9262.89702377
  -Hartree energ DENC   =     -2962.95055311
  -exchange      EXHF   =         0.00000000
  -V(xc)+E(xc)   XCENC  =        75.48731192
  PAW double counting   =     12881.90743455   -13226.22410746
  entropy T*S    EENTRO =        -0.00256496
  eigenvalues    EBANDS =       630.13407979
  atomic energy  EATOM  =     11229.46195210
  Solvation  Ediel_sol  =         0.00000000
  ---------------------------------------------------
  free energy    TOTEN  =      -103.25019637 eV

  energy without entropy =     -103.24763142  energy(sigma->0) =     -103.24891389


--------------------------------------------------------------------------------------------------------




--------------------------------------- Iteration      1(  14)  ---------------------------------------


    POTLOK:  cpu time    0.0978: real time    0.0979
    SETDIJ:  cpu time    0.0354: real time    0.0354
    EDDIAG:  cpu time    5.3484: real time    5.3730
  RMM-DIIS:  cpu time   17.9292: real time   17.9581
    ORTHCH:  cpu time    1.0126: real time    1.0139
       DOS:  cpu time    0.0056: real time    0.0056
    CHARGE:  cpu time    1.0845: real time    1.0860
    MIXING:  cpu time    0.0025: real time    0.0025
    --------------------------------------------
      LOOP:  cpu time   25.5159: real time   25.5724

 eigenvalue-minimisations  : 22569
 total energy-change (2. order) :-0.6389608E-03  (-0.1443640E-02)
 number of electron     128.0000046 magnetization      -0.0078372
 augmentation part       67.7845008 magnetization      -0.0178937

 Broyden mixing:
  rms(total) = 0.71325E-01    rms(broyden)= 0.71325E-01
  rms(prec ) = 0.10033E+00
  weight for this iteration     100.00

 eigenvalues of (default mixing * dielectric matrix)
  average eigenvalue GAMMA=   0.7848
  2.3291  1.3476  0.8567  0.8567  0.5557  0.4054  0.2018  0.2647  0.2449

 Free energy of the ion-electron system (eV)
  ---------------------------------------------------
  alpha Z        PSCENC =       531.83327457
  Ewald energy   TEWEN  =     -9262.89702377
  -Hartree energ DENC   =     -2962.18985159
  -exchange      EXHF   =         0.00000000
  -V(xc)+E(xc)   XCENC  =        75.47747750
  PAW double counting   =     12903.51229396   -13247.89600739
  entropy T*S    EENTRO =        -0.00256752
  eigenvalues    EBANDS =       629.44961682
  atomic energy  EATOM  =     11229.46195210
  Solvation  Ediel_sol  =         0.00000000
  ---------------------------------------------------
  free energy    TOTEN  =      -103.25083533 eV

  energy without entropy =     -103.24826781  energy(sigma->0) =     -103.24955157


--------------------------------------------------------------------------------------------------------




--------------------------------------- Iteration      1(  15)  ---------------------------------------


    POTLOK:  cpu time    0.1065: real time    0.1074
    SETDIJ:  cpu time    0.0371: real time    0.0372
    EDDIAG:  cpu time    5.4370: real time    5.4418
  RMM-DIIS:  cpu time   17.3097: real time   17.3261
    ORTHCH:  cpu time    1.0103: real time    1.0112
       DOS:  cpu time    0.0059: real time    0.0061
    CHARGE:  cpu time    1.0856: real time    1.0863
    MIXING:  cpu time    0.0027: real time    0.0027
    --------------------------------------------
      LOOP:  cpu time   24.9948: real time   25.0186

 eigenvalue-minimisations  : 21654
 total energy-change (2. order) : 0.1451672E-02  (-0.7353299E-03)
 number of electron     128.0000047 magnetization      -0.0045677
 augmentation part       67.7527633 magnetization       0.0014848

 Broyden mixing:
  rms(total) = 0.34966E-01    rms(broyden)= 0.34965E-01
  rms(prec ) = 0.45180E-01
  weight for this iteration     100.00

 eigenvalues of (default mixing * dielectric matrix)
  average eigenvalue GAMMA=   0.8288
  2.0864  2.0864  0.9094  0.9094  0.7076  0.5483  0.2019  0.3268  0.2686  0.2427

 Free energy of the ion-electron system (eV)
  ---------------------------------------------------
  alpha Z        PSCENC =       531.83327457
  Ewald energy   TEWEN  =     -9262.89702377
  -Hartree energ DENC   =     -2962.91462933
  -exchange      EXHF   =         0.00000000
  -V(xc)+E(xc)   XCENC  =        75.51153324
  PAW double counting   =     12907.12804184   -13251.53790658
  entropy T*S    EENTRO =        -0.00260179
  eigenvalues    EBANDS =       630.16797607
  atomic energy  EATOM  =     11229.46195210
  Solvation  Ediel_sol  =         0.00000000
  ---------------------------------------------------
  free energy    TOTEN  =      -103.24938366 eV

  energy without entropy =     -103.24678187  energy(sigma->0) =     -103.24808277


--------------------------------------------------------------------------------------------------------




--------------------------------------- Iteration      1(  16)  ---------------------------------------


    POTLOK:  cpu time    0.0981: real time    0.0983
    SETDIJ:  cpu time    0.0354: real time    0.0354
    EDDIAG:  cpu time    5.3848: real time    5.3904
  RMM-DIIS:  cpu time   17.8961: real time   17.9153
    ORTHCH:  cpu time    1.0117: real time    1.0126
       DOS:  cpu time    0.0060: real time    0.0062
    CHARGE:  cpu time    1.0860: real time    1.0867
[...]
         0         1         2         3         4         5         6         7         8         9
 total charge-density along one line

 pseudopotential strength for first ion, spin component:           1
 -1.615   0.001   0.006   0.010  -0.000  -2.252   0.001   0.006
  0.001  -1.617  -0.014  -0.011   0.019   0.001  -2.254  -0.013
  0.006  -0.014  -1.610  -0.009   0.005   0.006  -0.013  -2.247
  0.010  -0.011  -0.009  -1.618  -0.017   0.010  -0.011  -0.008
 -0.000   0.019   0.005  -0.017  -1.596  -0.000   0.018   0.005
 -2.252   0.001   0.006   0.010  -0.000  -2.819   0.001   0.006
  0.001  -2.254  -0.013  -0.011   0.018   0.001  -2.821  -0.012
  0.006  -0.013  -2.247  -0.008   0.005   0.006  -0.012  -2.814
  0.010  -0.011  -0.008  -2.255  -0.016   0.010  -0.011  -0.008
 -0.000   0.018   0.005  -0.016  -2.234  -0.000   0.018   0.005
  0.000   0.003   0.001   0.004   0.001   0.001   0.003   0.001
  0.000   0.006   0.002   0.007   0.001   0.001   0.006   0.001
 -0.002  -0.008  -0.001   0.001  -0.001  -0.002  -0.008  -0.001
  0.001   0.006  -0.012  -0.002  -0.000   0.000   0.005  -0.011
  0.006   0.001  -0.000  -0.008   0.000   0.006   0.000  -0.000
 -0.003  -0.008  -0.001   0.001  -0.002  -0.003  -0.008  -0.001
  0.001   0.008  -0.012  -0.003  -0.000   0.001   0.007  -0.012
  0.008   0.001  -0.000  -0.008   0.000   0.008   0.001  -0.000
 pseudopotential strength for first ion, spin component:           2
 -1.615  -0.001   0.006  -0.010  -0.000  -2.252  -0.001   0.006
 -0.001  -1.617   0.014  -0.011  -0.019  -0.001  -2.254   0.013
  0.006   0.014  -1.610   0.009   0.005   0.006   0.013  -2.247
 -0.010  -0.011   0.009  -1.618   0.017  -0.010  -0.011   0.008
 -0.000  -0.019   0.005   0.017  -1.596  -0.000  -0.018   0.005
 -2.252  -0.001   0.006  -0.010  -0.000  -2.820  -0.001   0.006
 -0.001  -2.254   0.013  -0.011  -0.018  -0.001  -2.821   0.012
  0.006   0.013  -2.247   0.008   0.005   0.006   0.012  -2.814
 -0.010  -0.011   0.008  -2.255   0.016  -0.010  -0.011   0.008
 -0.000  -0.018   0.005   0.016  -2.234  -0.000  -0.018   0.005
  0.000  -0.003   0.001  -0.004   0.001   0.001  -0.003   0.001
  0.000  -0.006   0.002  -0.007   0.001   0.001  -0.006   0.001
  0.002  -0.008   0.001   0.001   0.001   0.002  -0.008   0.001
  0.001  -0.006  -0.012   0.002  -0.000   0.000  -0.005  -0.011
 -0.006   0.001   0.000  -0.008  -0.000  -0.006   0.000   0.000
  0.003  -0.008   0.001   0.001   0.002   0.003  -0.008   0.001
  0.001  -0.008  -0.012   0.003  -0.000   0.001  -0.007  -0.012
 -0.008   0.001   0.000  -0.008  -0.000  -0.008   0.001   0.000
 total augmentation occupancy for first ion, spin component:           1
  1.896   0.000   0.039   0.000  -0.005  -0.455  -0.000  -0.037  -0.000   0.002  -0.108   0.028   0.000   0.041   0.000  -0.000
  0.000   1.987   0.000   0.031   0.000  -0.000  -0.523  -0.000  -0.053  -0.000  -0.000   0.000   0.031   0.000   0.046  -0.011
  0.039   0.000   2.678  -0.000   0.070  -0.036  -0.000  -1.003   0.000  -0.047  -0.012   0.008  -0.000  -0.090  -0.000  -0.000
  0.000   0.031  -0.000   2.090  -0.000  -0.000  -0.053   0.000  -0.586   0.000   0.000  -0.000   0.042   0.000   0.009  -0.008
 -0.005   0.000   0.070  -0.000   2.868   0.002  -0.000  -0.047   0.000  -1.121   0.028   0.003  -0.000   0.006   0.000  -0.000
 -0.455  -0.000  -0.036  -0.000   0.002   0.790   0.000   0.023   0.000  -0.001   0.067  -0.018  -0.000  -0.023  -0.000   0.000
 -0.000  -0.523  -0.000  -0.053  -0.000   0.000   0.837   0.000   0.064   0.000   0.000  -0.000   0.006  -0.000  -0.026   0.000
 -0.037  -0.000  -1.003   0.000  -0.047   0.023   0.000   1.086  -0.000   0.031   0.017  -0.008   0.000   0.085   0.000  -0.000
 -0.000  -0.053   0.000  -0.586   0.000   0.000   0.064  -0.000   0.876  -0.000  -0.000  -0.000  -0.023  -0.000   0.018   0.005
  0.002  -0.000  -0.047   0.000  -1.121  -0.001   0.000   0.031  -0.000   1.147  -0.016  -0.003   0.000  -0.004  -0.000  -0.000
 -0.108  -0.000  -0.012   0.000   0.028   0.067   0.000   0.017  -0.000  -0.016   2.130  -0.282  -0.000   0.068  -0.000   0.000
  0.028   0.000   0.008  -0.000   0.003  -0.018  -0.000  -0.008  -0.000  -0.003  -0.282   0.048   0.000  -0.000   0.000  -0.000
  0.000   0.031  -0.000   0.042  -0.000  -0.000   0.006   0.000  -0.023   0.000  -0.000   0.000   0.254  -0.000   0.002  -0.026
  0.041   0.000  -0.090   0.000   0.006  -0.023  -0.000   0.085  -0.000  -0.004   0.068  -0.000  -0.000   0.261   0.000   0.000
  0.000   0.046  -0.000   0.009   0.000  -0.000  -0.026   0.000   0.018  -0.000  -0.000   0.000   0.002   0.000   0.256  -0.002
 -0.000  -0.011  -0.000  -0.008  -0.000   0.000   0.000  -0.000   0.005  -0.000   0.000  -0.000  -0.026   0.000  -0.002   0.003
 -0.008  -0.000  -0.005  -0.000   0.000   0.005   0.000  -0.009   0.000  -0.000  -0.008  -0.000   0.000  -0.027  -0.000  -0.000
  0.000  -0.008   0.000  -0.010  -0.000   0.000   0.005  -0.000  -0.000   0.000   0.000  -0.000  -0.002  -0.000  -0.026   0.000
 total augmentation occupancy for first ion, spin component:           2
 -0.000   0.092   0.000   0.072   0.000   0.000  -0.080  -0.000  -0.095  -0.000   0.000  -0.000   0.043   0.000  -0.122  -0.002
  0.092   0.000   0.029  -0.000  -0.210  -0.080  -0.000   0.013   0.000   0.124  -0.082   0.001   0.000  -0.107  -0.000   0.000
  0.000   0.029  -0.000   0.100   0.000  -0.000   0.013   0.000  -0.061  -0.000  -0.000   0.000  -0.017   0.000   0.019  -0.001
  0.072  -0.000   0.100  -0.000   0.131  -0.094   0.000  -0.061   0.000  -0.065  -0.049  -0.000   0.000   0.041  -0.000   0.000
  0.000  -0.210   0.000   0.131  -0.000  -0.000   0.124  -0.000  -0.065   0.000   0.000   0.000  -0.051  -0.000  -0.028   0.000
  0.000  -0.080  -0.000  -0.094  -0.000   0.000   0.064   0.000   0.098   0.000  -0.000   0.000  -0.025  -0.000   0.078   0.003
 -0.080  -0.000   0.013   0.000   0.124   0.064   0.000  -0.035  -0.000  -0.064   0.058  -0.008  -0.000   0.065   0.000   0.000
 -0.000   0.013   0.000  -0.061  -0.000   0.000  -0.035  -0.000   0.034   0.000  -0.000  -0.000   0.019  -0.000  -0.015   0.000
 -0.095   0.000  -0.061   0.000  -0.065   0.098  -0.000   0.034  -0.000   0.023   0.026  -0.005  -0.000  -0.025   0.000  -0.000
 -0.000   0.124  -0.000  -0.065   0.000   0.000  -0.064   0.000   0.023  -0.000  -0.000   0.000   0.049   0.000   0.021  -0.001
  0.000  -0.082  -0.000  -0.049   0.000  -0.000   0.058  -0.000   0.026  -0.000   0.000  -0.000  -0.009  -0.000   0.009  -0.004
 -0.000   0.001   0.000  -0.000   0.000   0.000  -0.008  -0.000  -0.005   0.000  -0.000   0.000  -0.007  -0.000   0.002   0.001
  0.043   0.000  -0.017   0.000  -0.051  -0.025  -0.000   0.019  -0.000   0.049  -0.009  -0.007   0.000   0.011  -0.000  -0.000
  0.000  -0.107   0.000   0.041  -0.000  -0.000   0.065  -0.000  -0.025   0.000  -0.000  -0.000   0.011  -0.000   0.004  -0.001
 -0.122  -0.000   0.019  -0.000  -0.028   0.078   0.000  -0.015   0.000   0.021   0.009   0.002  -0.000   0.004  -0.000   0.000
 -0.002   0.000  -0.001   0.000   0.000   0.003   0.000   0.000  -0.000  -0.001  -0.004   0.001  -0.000  -0.001   0.000  -0.000
 -0.000   0.004   0.000  -0.001   0.000   0.000  -0.008  -0.000   0.003  -0.000   0.000  -0.000  -0.001   0.000  -0.001   0.000
  0.005   0.000  -0.001   0.000  -0.000  -0.008  -0.000   0.001   0.000  -0.001   0.001  -0.000   0.000  -0.001   0.000  -0.000


------------------------ aborting loop because EDIFF is reached ----------------------------------------





 total charge     

# of ion       s       p       d       tot
------------------------------------------
    1        0.475   0.425   8.377   9.277
    2        0.474   0.424   8.388   9.287
    3        0.474   0.424   8.388   9.287
    4        0.475   0.425   8.377   9.277
    5        0.475   0.425   8.377   9.277
    6        0.474   0.424   8.388   9.287
    7        0.474   0.424   8.388   9.287
    8        0.475   0.425   8.377   9.277
    9        0.308   0.285   4.946   5.538
   10        0.308   0.285   4.946   5.538
   11        0.343   0.349   4.962   5.654
   12        0.349   0.339   4.950   5.639
   13        0.343   0.349   4.962   5.654
   14        0.349   0.339   4.951   5.639
   15        1.245   1.714   0.298   3.256
   16        1.244   1.713   0.297   3.255
--------------------------------------------------
tot          8.287   8.769  97.369 114.425



 magnetization (x)

# of ion       s       p       d       tot
------------------------------------------
    1       -0.002  -0.002   0.005   0.001
    2       -0.001  -0.000  -0.003  -0.004
    3        0.001   0.000   0.003   0.004
    4        0.002   0.002  -0.005  -0.002
    5        0.002   0.002  -0.005  -0.002
    6        0.001   0.000   0.003   0.004
    7       -0.001  -0.000  -0.003  -0.004
    8       -0.002  -0.002   0.005   0.001
    9       -0.030  -0.015  -3.627  -3.671
   10        0.030   0.015   3.627   3.671
   11       -0.029  -0.035  -3.287  -3.351
   12       -0.029  -0.015  -3.467  -3.512
   13        0.029   0.035   3.288   3.352
   14        0.029   0.015   3.467   3.512
   15       -0.007   0.067  -0.002   0.058
   16        0.007  -0.067   0.002  -0.058
--------------------------------------------------
tot         -0.000  -0.000  -0.000  -0.000

    CHARGE:  cpu time    1.1240: real time    1.1253
    FORLOC:  cpu time    0.0072: real time    0.0072
    FORNL :  cpu time    8.3257: real time    8.3384
    STRESS:  cpu time   24.8566: real time   24.8962
    FORCOR:  cpu time    0.0994: real time    0.0994
    FORHAR:  cpu time    0.0160: real time    0.0160
    MIXING:  cpu time    0.0017: real time    0.0017
    OFIELD:  cpu time    0.0000: real time    0.0000

  FORCE on cell =-STRESS in cart. coord.  units (eV):
  Direction    XX          YY          ZZ          XY          YZ          ZX
  --------------------------------------------------------------------------------------
  Alpha Z   531.83327   531.83327   531.83327
  Ewald   -2945.34649 -2945.34642 -3371.41649     0.00000     0.00000     0.00000
  Hartree  1119.73875  1118.32318   725.82223    -0.00000    -0.00000    -0.00000
  E(xc)    -670.82068  -670.29554  -671.06973    -0.00000     0.00000    -0.00000
  Local    -532.14245  -526.40837   288.49804     0.00000    -0.00000     0.00000
  n-local  -148.79177  -150.16605  -147.71237    -0.10568    -0.39463    -0.19076
  augment  1579.83184  1578.19877  1578.94954     0.00000     0.00000    -0.00000
  Kinetic  1065.85307  1060.83550  1065.75670     1.39096     1.45149    -0.27007
  Fock        0.00000     0.00000     0.00000     0.00000     0.00000     0.00000
  -------------------------------------------------------------------------------------
  Total       0.15556    -3.02564     0.66118     0.00000     0.00000     0.00000
  in kB       1.17795   -22.91166     5.00675     0.00000     0.00000     0.00000
  external pressure =       -5.58 kB  Pullay stress =        0.00 kB


 VOLUME and BASIS-vectors are now :
 -----------------------------------------------------------------------------
  energy-cutoff  :      550.00
  volume of cell :      211.58
      direct lattice vectors                 reciprocal lattice vectors
     5.958779071  0.000000000  0.000000000     0.167819613  0.000000000  0.000000000
     0.000000000  5.958779071  0.000000000     0.000000000  0.167819613  0.000000000
     0.000000000  0.000000000  5.958779071     0.000000000  0.000000000  0.167819613

  length of vectors
     5.958779071  5.958779071  5.958779071     0.167819613  0.167819613  0.167819613


 FORCES acting on ions
    electron-ion (+dipol)            ewald-force                    non-local-force                 convergence-correction
 -----------------------------------------------------------------------------------------------
   -.919E-01 -.326E-01 0.192E+03   0.922E-01 0.318E-01 -.190E+03   0.109E-02 -.539E-03 -.248E+01   -.222E-03 0.172E-02 0.117E-01
   0.919E-01 -.326E-01 0.192E+03   -.922E-01 0.318E-01 -.190E+03   -.109E-02 -.539E-03 -.248E+01   0.222E-03 0.172E-02 0.117E-01
   -.919E-01 0.326E-01 0.192E+03   0.922E-01 -.318E-01 -.190E+03   0.109E-02 0.539E-03 -.248E+01   -.222E-03 -.172E-02 0.117E-01
   0.919E-01 0.326E-01 0.192E+03   -.922E-01 -.318E-01 -.190E+03   -.109E-02 0.539E-03 -.248E+01   0.222E-03 -.172E-02 0.117E-01
   -.919E-01 -.326E-01 -.192E+03   0.922E-01 0.318E-01 0.190E+03   0.109E-02 -.539E-03 0.248E+01   -.222E-03 0.172E-02 -.117E-01
   0.919E-01 -.326E-01 -.192E+03   -.922E-01 0.318E-01 0.190E+03   -.109E-02 -.539E-03 0.248E+01   0.222E-03 0.172E-02 -.117E-01
   -.919E-01 0.326E-01 -.192E+03   0.922E-01 -.318E-01 0.190E+03   0.109E-02 0.539E-03 0.248E+01   -.222E-03 -.172E-02 -.117E-01
   0.919E-01 0.326E-01 -.192E+03   -.922E-01 -.318E-01 0.190E+03   -.109E-02 0.539E-03 0.248E+01   0.222E-03 -.172E-02 -.117E-01
   0.197E-12 0.521E-13 -.568E-12   -.101E-13 -.910E-14 -.518E-13   0.000E+00 0.000E+00 0.000E+00   0.404E-11 -.552E-12 -.346E-12
   -.119E-13 0.174E-12 -.251E-13   0.148E-13 -.219E-13 -.376E-13   0.000E+00 0.000E+00 0.000E+00   0.129E-11 0.764E-12 -.602E-12
   -.904E-14 0.721E-14 0.204E-12   -.115E-12 0.218E-14 0.161E-13   0.000E+00 0.000E+00 0.000E+00   -.114E-11 0.681E-12 -.221E-12
   0.172E-12 0.993E-14 0.167E-11   -.584E-13 0.722E-13 0.296E-14   0.000E+00 0.000E+00 0.000E+00   0.113E-11 0.688E-12 -.235E-12
   0.166E-12 0.128E-12 0.102E-11   -.128E-13 0.552E-13 0.190E-14   0.000E+00 0.000E+00 0.000E+00   -.405E-11 -.603E-12 -.100E-12
   -.623E-14 0.160E-12 0.200E-12   0.802E-13 -.595E-13 0.172E-13   0.000E+00 0.000E+00 0.000E+00   0.404E-11 -.614E-12 -.758E-13
   -.347E-13 -.606E-16 0.393E-15   -.207E-13 -.933E-14 0.585E-15   0.000E+00 0.000E+00 0.000E+00   -.842E-12 -.144E-12 -.875E-13
   -.183E-13 -.510E-12 0.361E-13   -.502E-14 -.795E-14 -.207E-13   0.000E+00 0.000E+00 0.000E+00   -.317E-12 0.189E-12 -.139E-12
 -----------------------------------------------------------------------------------------------
   0.696E-11 0.170E-10 -.159E-10   -.130E-13 -.670E-13 -.146E-13   0.000E+00 0.000E+00 0.444E-15   0.494E-11 -.622E-11 0.218E-10


 POSITION                                       TOTAL-FORCE (eV/Angst)
 -----------------------------------------------------------------------------------
      1.48959      1.48965      1.61696         0.001186      0.000312     -0.004453
      4.46919      1.48965      1.61696        -0.001186      0.000312     -0.004453
      1.48959      4.46913      1.61696         0.001186     -0.000312     -0.004453
      4.46919      4.46913      1.61696        -0.001186     -0.000312     -0.004453
      1.48959      1.48965      4.34182         0.001186      0.000312      0.004453
      4.46919      1.48965      4.34182        -0.001186      0.000312      0.004453
      1.48959      4.46913      4.34182         0.001186     -0.000312      0.004453
      4.46919      4.46913      4.34182        -0.001186     -0.000312      0.004453
      2.97939      0.00000     -0.00000         0.000000     -0.000000      0.000000
     -0.00000      2.97939     -0.00000         0.000000     -0.000000      0.000000
     -0.00000      0.00000      2.97939         0.000000     -0.000000      0.000000
      2.97939      0.00000      2.97939         0.000000     -0.000000      0.000000
      2.97939      2.97939      2.97939         0.000000     -0.000000      0.000000
     -0.00000      2.97939      2.97939         0.000000     -0.000000      0.000000
     -0.00000      0.00000     -0.00000         0.000000     -0.000000      0.000000
      2.97939      2.97939     -0.00000         0.000000     -0.000000      0.000000
 -----------------------------------------------------------------------------------
    total drift:                                0.000000      0.000000      0.000000


--------------------------------------------------------------------------------------------------------



  FREE ENERGIE OF THE ION-ELECTRON SYSTEM (eV)
  ---------------------------------------------------
  free  energy   TOTEN  =      -103.24924534 eV

  energy  without entropy=     -103.24665699  energy(sigma->0) =     -103.24795117

 d Force = 0.1434992E-04[-0.193E-04, 0.480E-04]  d Energy = 0.3526832E-04-0.209E-04
 d Force =-0.8149956E+00[-0.816E+00,-0.814E+00]  d Ewald  =-0.8149956E+00-0.493E-08


--------------------------------------------------------------------------------------------------------


    POTLOK:  cpu time    0.1325: real time    0.1327


--------------------------------------------------------------------------------------------------------


 Steepest descent step on ions:
 trial-energy change:   -0.000035  1 .order   -0.000014   -0.000048    0.000019
  (g-gl).g = 0.480E-04      g.g   = 0.480E-04  gl.gl    = 0.000E+00
 g(Force)  = 0.480E-04   g(Stress)= 0.000E+00 ortho     = 0.000E+00
 gamma     =   0.00000
 trial     =   1.00000
 opt step  =   0.71350  (harmonic =   0.71350) maximal distance =0.00038343
 next E    =  -103.249227   (d E  =  -0.00002)


--------------------------------------------------------------------------------------------------------


  
 reached required accuracy - stopping structural energy minimisation
     LOOP+:  cpu time  143.5158: real time  143.7443
    4ORBIT:  cpu time    0.0000: real time    0.0000



 total charge     

# of ion       s       p       d       tot
------------------------------------------
    1        0.475   0.425   8.377   9.277
    2        0.474   0.424   8.388   9.287
    3        0.474   0.424   8.388   9.287
    4        0.475   0.425   8.377   9.277
    5        0.475   0.425   8.377   9.277
    6        0.474   0.424   8.388   9.287
    7        0.474   0.424   8.388   9.287
    8        0.475   0.425   8.377   9.277
    9        0.308   0.285   4.946   5.538
   10        0.308   0.285   4.946   5.538
   11        0.343   0.349   4.962   5.654
   12        0.349   0.339   4.950   5.639
   13        0.343   0.349   4.962   5.654
   14        0.349   0.339   4.951   5.639
   15        1.245   1.714   0.298   3.256
   16        1.244   1.713   0.297   3.255
--------------------------------------------------
tot          8.287   8.769  97.369 114.425



 magnetization (x)

# of ion       s       p       d       tot
------------------------------------------
    1       -0.002  -0.002   0.005   0.001
    2       -0.001  -0.000  -0.003  -0.004
    3        0.001   0.000   0.003   0.004
    4        0.002   0.002  -0.005  -0.002
    5        0.002   0.002  -0.005  -0.002
    6        0.001   0.000   0.003   0.004
    7       -0.001  -0.000  -0.003  -0.004
    8       -0.002  -0.002   0.005   0.001
    9       -0.030  -0.015  -3.627  -3.671
   10        0.030   0.015   3.627   3.671
   11       -0.029  -0.035  -3.287  -3.351
   12       -0.029  -0.015  -3.467  -3.512
   13        0.029   0.035   3.288   3.352
   14        0.029   0.015   3.467   3.512
   15       -0.007   0.067  -0.002   0.058
   16        0.007  -0.067   0.002  -0.058
--------------------------------------------------
tot         -0.000  -0.000  -0.000  -0.000


 total amount of memory used by VASP MPI-rank0   138552. kBytes
=======================================================================

   base      :      30000. kBytes
   nonlr-proj:       6800. kBytes
   fftplans  :       1269. kBytes
   grid      :       6573. kBytes
   one-center:        497. kBytes
   wavefun   :      93413. kBytes

  
  
 General timing and accounting informations for this job:
 ========================================================
  
                  Total CPU time used (sec):      769.370
                            User time (sec):      728.755
                          System time (sec):       40.615
                         Elapsed time (sec):      771.051
  
                   Maximum memory used (kb):      183528.
                   Average memory used (kb):           0.
  
                          Minor page faults:     18551331
                          Major page faults:            9
                 Voluntary context switches:         2934
