 vasp.5.4.4.18Apr17-6-g9f103f2a35 (build May 21 2018 20:56:50) complex           
 executed on             LinuxGNU date 2021.10.15  15:42:05
 running on   12 total cores
 distrk:  each k-point on   12 cores,    1 groups
 distr:  one band on NCORES_PER_BAND=   1 cores,   12 groups


--------------------------------------------------------------------------------------------------------


 INCAR:
 POTCAR:    PAW_PBE Ni 02Aug2007                  
 POTCAR:    PAW_PBE Mn 06Sep2000                  
 POTCAR:    PAW_PBE In 08Apr2002                  

 ----------------------------------------------------------------------------- 
|                                                                             |
|           W    W    AA    RRRRR   N    N  II  N    N   GGGG   !!!           |
|           W    W   A  A   R    R  NN   N  II  NN   N  G    G  !!!           |
|           W    W  A    A  R    R  N N  N  II  N N  N  G       !!!           |
|           W WW W  AAAAAA  RRRRR   N  N N  II  N  N N  G  GGG   !            |
|           WW  WW  A    A  R   R   N   NN  II  N   NN  G    G                |
|           W    W  A    A  R    R  N    N  II  N    N   GGGG   !!!           |
|                                                                             |
|      For optimal performance we recommend to set                            |
|        NCORE= 4 - approx SQRT( number of cores)                             |
|      NCORE specifies how many cores store one orbital (NPAR=cpu/NCORE).     |
|      This setting can  greatly improve the performance of VASP for DFT.     |
|      The default,   NCORE=1            might be grossly inefficient         |
|      on modern multi-core architectures or massively parallel machines.     |
|      Do your own testing !!!!                                               |
|      Unfortunately you need to use the default for GW and RPA calculations. |
|      (for HF NCORE is supported but not extensively tested yet)             |
|                                                                             |
 ----------------------------------------------------------------------------- 

 POTCAR:    PAW_PBE Ni 02Aug2007                  
   VRHFIN =Ni:                                                                  
   LEXCH  = PE                                                                  
   EATOM  =  1077.6739 eV,   79.2068 Ry                                         
                                                                                
   TITEL  = PAW_PBE Ni 02Aug2007                                                
   LULTRA =        F    use ultrasoft PP ?                                      
   IUNSCR =        1    unscreen: 0-lin 1-nonlin 2-no                           
   RPACOR =    2.000    partial core radius                                     
   POMASS =   58.690; ZVAL   =   10.000    mass and valenz                      
   RCORE  =    2.300    outmost cutoff radius                                   
   RWIGS  =    2.430; RWIGS  =    1.286    wigner-seitz radius (au A)           
   ENMAX  =  269.532; ENMIN  =  202.149 eV                                      
   RCLOC  =    1.201    cutoff for local pot                                    
   LCOR   =        T    correct aug charges                                     
   LPAW   =        T    paw PP                                                  
   EAUG   =  544.565                                                            
   DEXC   =    0.000                                                            
   RMAX   =    2.357    core radius for proj-oper                               
   RAUG   =    1.300    factor for augmentation sphere                          
   RDEP   =    2.390    radius for radial grids                                 
   RDEPT  =    1.838    core radius for aug-charge                              
                                                                                
   Atomic configuration                                                         
    9 entries                                                                   
     n  l   j            E        occ.                                          
     1  0  0.50     -8206.4253   2.0000                                         
     2  0  0.50      -976.1748   2.0000                                         
     2  1  1.50      -839.0571   6.0000                                         
     3  0  0.50      -105.9991   2.0000                                         
     3  1  1.50       -66.4603   6.0000                                         
     3  2  2.50        -4.6458   9.0000                                         
     4  0  0.50        -4.4926   1.0000                                         
     4  1  1.50        -4.0817   0.0000                                         
     4  3  2.50        -1.3606   0.0000                                         
   Description                                                                  
     l       E           TYP  RCUT    TYP  RCUT                                 
     2     -4.6457903     23  2.300                                             
     2     -6.0063729     23  2.300                                             
     0     -4.4925590     23  2.300                                             
     0      5.0102601     23  2.300                                             
     1     -2.7211652     23  2.300                                             
     1     16.5183231     23  2.300                                             
  local pseudopotential read in
  partial core-charges read in
  partial kinetic energy density read in
  atomic valenz-charges read in
  non local Contribution for L=           2  read in
    real space projection operators read in
  non local Contribution for L=           2  read in
    real space projection operators read in
  non local Contribution for L=           0  read in
    real space projection operators read in
  non local Contribution for L=           0  read in
    real space projection operators read in
  non local Contribution for L=           1  read in
    real space projection operators read in
  non local Contribution for L=           1  read in
    real space projection operators read in
    PAW grid and wavefunctions read in

   number of l-projection  operators is LMAX  =           6
   number of lm-projection operators is LMMAX =          18

 POTCAR:    PAW_PBE Mn 06Sep2000                  
   VRHFIN =Mn: d6 s1                                                            
   LEXCH  = PE                                                                  
   EATOM  =   416.7541 eV,   30.6306 Ry                                         
                                                                                
   TITEL  = PAW_PBE Mn 06Sep2000                                                
   LULTRA =        F    use ultrasoft PP ?                                      
   IUNSCR =        1    unscreen: 0-lin 1-nonlin 2-no                           
   RPACOR =    2.000    partial core radius                                     
   POMASS =   54.938; ZVAL   =    7.000    mass and valenz                      
   RCORE  =    2.300    outmost cutoff radius                                   
   RWIGS  =    2.500; RWIGS  =    1.323    wigner-seitz radius (au A)           
   ENMAX  =  269.864; ENMIN  =  202.398 eV                                      
   RCLOC  =    1.725    cutoff for local pot                                    
   LCOR   =        T    correct aug charges                                     
   LPAW   =        T    paw PP                                                  
   EAUG   =  500.711                                                            
   DEXC   =    0.000                                                            
   RMAX   =    2.343    core radius for proj-oper                               
   RAUG   =    1.300    factor for augmentation sphere                          
   RDEP   =    2.338    radius for radial grids                                 
   RDEPT  =    1.911    core radius for aug-charge                              
                                                                                
   Atomic configuration                                                         
    9 entries                                                                   
     n  l   j            E        occ.                                          
     1  0  0.50     -6424.8288   2.0000                                         
     2  0  0.50      -739.1154   2.0000                                         
     2  1  1.50      -625.3949   6.0000                                         
     3  0  0.50       -81.6100   2.0000                                         
     3  1  1.50       -50.4667   6.0000                                         
     3  2  2.50        -3.3745   6.0000                                         
     4  0  0.50        -4.1331   1.0000                                         
     4  1  0.50        -4.0817   0.0000                                         
     4  3  2.50        -1.3606   0.0000                                         
   Description                                                                  
     l       E           TYP  RCUT    TYP  RCUT                                 
     2     -3.3744664     23  2.300                                             
     2     -4.7350490     23  2.300                                             
     0     -4.1331408     23  2.300                                             
     0      7.6656614     23  2.300                                             
     1     -2.7211652     23  2.300                                             
     1     20.4087390     23  2.300                                             
  local pseudopotential read in
  partial core-charges read in
  partial kinetic energy density read in
  atomic valenz-charges read in
  non local Contribution for L=           2  read in
    real space projection operators read in
  non local Contribution for L=           2  read in
    real space projection operators read in
  non local Contribution for L=           0  read in
    real space projection operators read in
  non local Contribution for L=           0  read in
    real space projection operators read in
  non local Contribution for L=           1  read in
    real space projection operators read in
  non local Contribution for L=           1  read in
    real space projection operators read in
    PAW grid and wavefunctions read in

   number of l-projection  operators is LMAX  =           6
   number of lm-projection operators is LMMAX =          18

 POTCAR:    PAW_PBE In 08Apr2002                  
   VRHFIN =In: s2p1                                                             
   LEXCH  = PE                                                                  
   EATOM  =    53.7908 eV,    3.9535 Ry                                         
                                                                                
   TITEL  = PAW_PBE In 08Apr2002                                                
   LULTRA =        F    use ultrasoft PP ?                                      
   IUNSCR =        1    unscreen: 0-lin 1-nonlin 2-no                           
   RPACOR =    2.400    partial core radius                                     
   POMASS =  114.820; ZVAL   =    3.000    mass and valenz                      
   RCORE  =    3.100    outmost cutoff radius                                   
   RWIGS  =    3.170; RWIGS  =    1.677    wigner-seitz radius (au A)           
   ENMAX  =   95.934; ENMIN  =   71.951 eV                                      
   ICORE  =        3    local potential                                         
   LCOR   =        T    correct aug charges                                     
   LPAW   =        T    paw PP                                                  
   EAUG   =  237.125                                                            
   DEXC   =    0.000                                                            
   RMAX   =    3.168    core radius for proj-oper                               
   RAUG   =    1.300    factor for augmentation sphere                          
   RDEP   =    3.187    radius for radial grids                                 
   RDEPT  =    2.711    core radius for aug-charge                              
                                                                                
   Atomic configuration                                                         
   13 entries                                                                   
     n  l   j            E        occ.                                          
     1  0  0.50    -27747.9169   2.0000                                         
     2  0  0.50     -4154.4438   2.0000                                         
     2  1  1.50     -3728.4305   6.0000                                         
     3  0  0.50      -788.3680   2.0000                                         
     3  1  1.50      -648.9215   6.0000                                         
     3  2  2.50      -432.5893  10.0000                                         
     4  0  0.50      -119.6363   2.0000                                         
     4  1  1.50       -78.1086   6.0000                                         
     4  2  2.50       -18.6227  10.0000                                         
     5  0  0.50        -8.2107   2.0000                                         
     5  1  0.50        -2.5185   1.0000                                         
     5  2  2.50        -1.3606   0.0000                                         
     4  3  2.50        -2.7212   0.0000                                         
   Description                                                                  
     l       E           TYP  RCUT    TYP  RCUT                                 
     0     -8.2107306     23  3.100                                             
     0     -6.1485975     23  3.100                                             
     1     -2.5184867     23  3.100                                             
     1      3.2427302     23  3.100                                             
     2     -1.3605826     23  3.100                                             
     3     -1.3605826     23  3.100                                             
  local pseudopotential read in
  partial core-charges read in
  partial kinetic energy density read in
  atomic valenz-charges read in
  non local Contribution for L=           0  read in
    real space projection operators read in
  non local Contribution for L=           0  read in
    real space projection operators read in
  non local Contribution for L=           1  read in
    real space projection operators read in
  non local Contribution for L=           1  read in
    real space projection operators read in
  non local Contribution for L=           2  read in
    real space projection operators read in
    PAW grid and wavefunctions read in

   number of l-projection  operators is LMAX  =           5
   number of lm-projection operators is LMMAX =          13

 Optimization of the real space projectors (new method)

 maximal supplied QI-value         = 16.25
 optimisation between [QCUT,QGAM] = [ 11.86, 23.89] = [ 39.41,159.82] Ry 
 Optimized for a Real-space Cutoff    1.33 Angstroem

   l    n(q)    QCUT    max X(q) W(low)/X(q) W(high)/X(q)  e(spline) 
   2      9    11.864    60.317    0.21E-03    0.51E-03    0.25E-06
   2      9    11.864    55.921    0.21E-03    0.51E-03    0.26E-06
   0      9    11.864    51.690    0.22E-03    0.30E-04    0.17E-06
   0      9    11.864    30.015    0.20E-03    0.28E-04    0.15E-06
   1      9    11.864    18.849    0.76E-04    0.33E-03    0.17E-06
   1      9    11.864    14.624    0.60E-04    0.28E-03    0.15E-06
 Optimization of the real space projectors (new method)

 maximal supplied QI-value         = 16.25
 optimisation between [QCUT,QGAM] = [ 11.86, 23.89] = [ 39.41,159.82] Ry 
 Optimized for a Real-space Cutoff    1.36 Angstroem

   l    n(q)    QCUT    max X(q) W(low)/X(q) W(high)/X(q)  e(spline) 
   2      9    11.864   110.144    0.49E-03    0.50E-03    0.21E-06
   2      9    11.864   103.200    0.49E-03    0.51E-03    0.22E-06
   0     10    11.864    68.437    0.12E-03    0.41E-04    0.21E-06
   0     10    11.864    33.971    0.11E-03    0.36E-04    0.19E-06
   1      9    11.864    17.065    0.24E-03    0.26E-03    0.93E-07
   1      9    11.864    12.540    0.19E-03    0.20E-03    0.80E-07
 Optimization of the real space projectors (new method)

 maximal supplied QI-value         = 12.09
 optimisation between [QCUT,QGAM] = [ 11.97, 23.95] = [ 40.14,160.58] Ry 
 Optimized for a Real-space Cutoff    1.63 Angstroem

   l    n(q)    QCUT    max X(q) W(low)/X(q) W(high)/X(q)  e(spline) 
   0     12    11.973   106.980    0.33E-03    0.16E-03    0.25E-05
   0     12    11.973    81.086    0.37E-03    0.18E-03    0.28E-05
   1     11    11.973    53.097    0.22E-03    0.42E-03    0.40E-05
   1     11    11.973    32.621    0.20E-03    0.40E-03    0.37E-05
   2     11    11.973     8.820    0.30E-03    0.17E-03    0.41E-06
  PAW_PBE Ni 02Aug2007                  :
 energy of atom  1       EATOM=-1077.6739
 kinetic energy error for atom=    0.0027 (will be added to EATOM!!)
  PAW_PBE Mn 06Sep2000                  :
 energy of atom  2       EATOM= -416.7541
 kinetic energy error for atom=    0.0022 (will be added to EATOM!!)
  PAW_PBE In 08Apr2002                  :
 energy of atom  3       EATOM=  -53.7908
 kinetic energy error for atom=    0.0000 (will be added to EATOM!!)


 POSCAR: Ni2MnIn                                 
  positions in direct lattice
  velocities in cartesian coordinates
 exchange correlation table for  LEXCH =        8
   RHO(1)=    0.500       N(1)  =     2000
   RHO(2)=  100.500       N(2)  =     4000



--------------------------------------------------------------------------------------------------------


 ion  position               nearest neighbor table
   1  0.246  0.260  0.269-  14 2.47  13 2.50  11 2.54  12 2.57  10 2.60   9 2.63  15 2.67  16 2.70
                             5 2.75   3 2.87   2 2.93   2 3.03
   2  0.754  0.260  0.269-  14 2.47  13 2.50  11 2.54  12 2.57  10 2.60   9 2.63  15 2.67  16 2.70
                             6 2.75   4 2.87   1 2.93   1 3.03
   3  0.246  0.740  0.269-  14 2.47  13 2.50  11 2.54  12 2.57  10 2.60   9 2.63  15 2.67  16 2.70
                             7 2.75   1 2.87   4 2.93   4 3.03
   4  0.754  0.740  0.269-  14 2.47  13 2.50  11 2.54  12 2.57  10 2.60   9 2.63  15 2.67  16 2.70
                             8 2.75   2 2.87   3 2.93   3 3.03
   5  0.246  0.260  0.731-  14 2.47  13 2.50  11 2.54  12 2.57  10 2.60   9 2.63  15 2.67  16 2.70
                             1 2.75   7 2.87   6 2.93   6 3.03
   6  0.754  0.260  0.731-  14 2.47  13 2.50  11 2.54  12 2.57  10 2.60   9 2.63  15 2.67  16 2.70
                             2 2.75   8 2.87   5 2.93   5 3.03
   7  0.246  0.740  0.731-  14 2.47  13 2.50  11 2.54  12 2.57  10 2.60   9 2.63  15 2.67  16 2.70
                             3 2.75   5 2.87   8 2.93   8 3.03
   8  0.754  0.740  0.731-  14 2.47  13 2.50  11 2.54  12 2.57  10 2.60   9 2.63  15 2.67  16 2.70
                             4 2.75   6 2.87   7 2.93   7 3.03
   9  0.500  0.500  0.000-   1 2.63   2 2.63   3 2.63   4 2.63   5 2.63   6 2.63   7 2.63   8 2.63
                            10 2.98  13 2.98  16 2.98  13 2.98  16 2.98  10 2.98
  10  0.000  0.500  0.000-   1 2.60   2 2.60   3 2.60   4 2.60   5 2.60   6 2.60   7 2.60   8 2.60
                             9 2.98  14 2.98  15 2.98  14 2.98  15 2.98   9 2.98
  11  0.000  0.000  0.500-   1 2.54   2 2.54   3 2.54   4 2.54   5 2.54   6 2.54   7 2.54   8 2.54
                            12 2.98  14 2.98  15 2.98  15 2.98  14 2.98  12 2.98
  12  0.500  0.000  0.500-   1 2.57   2 2.57   3 2.57   4 2.57   5 2.57   6 2.57   7 2.57   8 2.57
                            11 2.98  13 2.98  16 2.98  16 2.98  13 2.98  11 2.98
  13  0.500  0.500  0.500-   1 2.50   2 2.50   3 2.50   4 2.50   5 2.50   6 2.50   7 2.50   8 2.50
                             9 2.98  12 2.98  14 2.98   9 2.98  12 2.98  14 2.98
  14  0.000  0.500  0.500-   1 2.47   2 2.47   3 2.47   4 2.47   5 2.47   6 2.47   7 2.47   8 2.47
                            10 2.98  11 2.98  13 2.98  10 2.98  11 2.98  13 2.98
  15  0.000  0.000  0.000-   1 2.67   2 2.67   3 2.67   4 2.67   5 2.67   6 2.67   7 2.67   8 2.67
                            10 2.98  11 2.98  16 2.98  11 2.98  10 2.98  16 2.98
  16  0.500  0.000  0.000-   1 2.70   2 2.70   3 2.70   4 2.70   5 2.70   6 2.70   7 2.70   8 2.70
                             9 2.98  12 2.98  15 2.98  12 2.98   9 2.98  15 2.98

  LATTYP: Found a simple cubic cell.
 ALAT       =     5.9616950539
  
  Lattice vectors:
  
 A1 = (   5.9616950539,   0.0000000000,   0.0000000000)
 A2 = (   0.0000000000,   5.9616950539,   0.0000000000)
 A3 = (   0.0000000000,   0.0000000000,   5.9616950539)


Analysis of symmetry for initial positions (statically):
=====================================================================
 Subroutine PRICEL returns:
 Original cell was already a primitive cell.
 

 Routine SETGRP: Setting up the symmetry group for a 
 simple cubic supercell.


 Subroutine GETGRP returns: Found  8 space group operations
 (whereof  8 operations were pure point group operations)
 out of a pool of 48 trial point group operations.


The static configuration has the point symmetry D_2h.


Analysis of symmetry for dynamics (positions and initial velocities):
=====================================================================
 Subroutine PRICEL returns:
 Original cell was already a primitive cell.
 

 Routine SETGRP: Setting up the symmetry group for a 
 simple cubic supercell.


 Subroutine GETGRP returns: Found  8 space group operations
 (whereof  8 operations were pure point group operations)
 out of a pool of 48 trial point group operations.


The dynamic configuration has the point symmetry D_2h.


Analysis of structural, dynamic, and magnetic symmetry:
=====================================================================
 Subroutine PRICEL returns:
 Original cell was already a primitive cell.
 

 Routine SETGRP: Setting up the symmetry group for a 
 simple cubic supercell.


 Subroutine GETGRP returns: Found  8 space group operations
 (whereof  8 operations were pure point group operations)
 out of a pool of 48 trial point group operations.


The magnetic configuration has the point symmetry D_2h.


 Subroutine INISYM returns: Found  8 space group operations
 (whereof  8 operations are pure point group operations),
 and found     1 'primitive' translations



 KPOINTS: k-points                                

Automatic generation of k-mesh.
Space group operators:
 irot       det(A)        alpha          n_x          n_y          n_z        tau_x        tau_y        tau_z
    1     1.000000     0.000000     1.000000     0.000000     0.000000     0.000000     0.000000     0.000000
    2    -1.000000     0.000000     1.000000     0.000000     0.000000     0.000000     0.000000     0.000000
    3     1.000000   180.000000     0.000000     0.000000     1.000000     0.000000     0.000000     0.000000
    4    -1.000000   180.000000     0.000000     0.000000     1.000000     0.000000     0.000000     0.000000
    5     1.000000   180.000000     1.000000     0.000000     0.000000     0.000000     0.000000     0.000000
    6    -1.000000   180.000000     1.000000     0.000000     0.000000     0.000000     0.000000     0.000000
    7     1.000000   180.000000     0.000000     1.000000     0.000000     0.000000     0.000000     0.000000
    8    -1.000000   180.000000     0.000000     1.000000     0.000000     0.000000     0.000000     0.000000
 
 Subroutine IBZKPT returns following result:
 ===========================================
 
 Found     64 irreducible k-points:
 
 Following reciprocal coordinates:
            Coordinates               Weight
  0.000000  0.000000  0.000000      1.000000
  0.142857  0.000000  0.000000      2.000000
  0.285714  0.000000  0.000000      2.000000
  0.428571  0.000000  0.000000      2.000000
  0.000000  0.142857  0.000000      2.000000
  0.142857  0.142857  0.000000      4.000000
  0.285714  0.142857  0.000000      4.000000
  0.428571  0.142857  0.000000      4.000000
  0.000000  0.285714  0.000000      2.000000
  0.142857  0.285714  0.000000      4.000000
  0.285714  0.285714  0.000000      4.000000
  0.428571  0.285714  0.000000      4.000000
  0.000000  0.428571  0.000000      2.000000
  0.142857  0.428571  0.000000      4.000000
  0.285714  0.428571  0.000000      4.000000
  0.428571  0.428571  0.000000      4.000000
  0.000000  0.000000  0.142857      2.000000
  0.142857  0.000000  0.142857      4.000000
  0.285714  0.000000  0.142857      4.000000
  0.428571  0.000000  0.142857      4.000000
  0.000000  0.142857  0.142857      4.000000
  0.142857  0.142857  0.142857      8.000000
  0.285714  0.142857  0.142857      8.000000
  0.428571  0.142857  0.142857      8.000000
  0.000000  0.285714  0.142857      4.000000
  0.142857  0.285714  0.142857      8.000000
  0.285714  0.285714  0.142857      8.000000
  0.428571  0.285714  0.142857      8.000000
  0.000000  0.428571  0.142857      4.000000
  0.142857  0.428571  0.142857      8.000000
  0.285714  0.428571  0.142857      8.000000
  0.428571  0.428571  0.142857      8.000000
  0.000000  0.000000  0.285714      2.000000
  0.142857  0.000000  0.285714      4.000000
  0.285714  0.000000  0.285714      4.000000
  0.428571  0.000000  0.285714      4.000000
  0.000000  0.142857  0.285714      4.000000
  0.142857  0.142857  0.285714      8.000000
  0.285714  0.142857  0.285714      8.000000
  0.428571  0.142857  0.285714      8.000000
  0.000000  0.285714  0.285714      4.000000
  0.142857  0.285714  0.285714      8.000000
  0.285714  0.285714  0.285714      8.000000
  0.428571  0.285714  0.285714      8.000000
  0.000000  0.428571  0.285714      4.000000
  0.142857  0.428571  0.285714      8.000000
  0.285714  0.428571  0.285714      8.000000
  0.428571  0.428571  0.285714      8.000000
  0.000000  0.000000  0.428571      2.000000
  0.142857  0.000000  0.428571      4.000000
  0.285714  0.000000  0.428571      4.000000
  0.428571  0.000000  0.428571      4.000000
  0.000000  0.142857  0.428571      4.000000
  0.142857  0.142857  0.428571      8.000000
  0.285714  0.142857  0.428571      8.000000
  0.428571  0.142857  0.428571      8.000000
  0.000000  0.285714  0.428571      4.000000
  0.142857  0.285714  0.428571      8.000000
  0.285714  0.285714  0.428571      8.000000
  0.428571  0.285714  0.428571      8.000000
  0.000000  0.428571  0.428571      4.000000
  0.142857  0.428571  0.428571      8.000000
  0.285714  0.428571  0.428571      8.000000
  0.428571  0.428571  0.428571      8.000000
 
 Following cartesian coordinates:
            Coordinates               Weight
  0.000000  0.000000  0.000000      1.000000
  0.138024  0.000000  0.000000      2.000000
  0.276048  0.000000  0.000000      2.000000
  0.414072  0.000000  0.000000      2.000000
  0.000000  0.138024  0.000000      2.000000
  0.138024  0.138024  0.000000      4.000000
  0.276048  0.138024  0.000000      4.000000
  0.414072  0.138024  0.000000      4.000000
  0.000000  0.276048  0.000000      2.000000
  0.138024  0.276048  0.000000      4.000000
  0.276048  0.276048  0.000000      4.000000
  0.414072  0.276048  0.000000      4.000000
  0.000000  0.414072  0.000000      2.000000
  0.138024  0.414072  0.000000      4.000000
  0.276048  0.414072  0.000000      4.000000
  0.414072  0.414072  0.000000      4.000000
  0.000000  0.000000  0.138024      2.000000
  0.138024  0.000000  0.138024      4.000000
  0.276048  0.000000  0.138024      4.000000
  0.414072  0.000000  0.138024      4.000000
  0.000000  0.138024  0.138024      4.000000
  0.138024  0.138024  0.138024      8.000000
  0.276048  0.138024  0.138024      8.000000
  0.414072  0.138024  0.138024      8.000000
  0.000000  0.276048  0.138024      4.000000
  0.138024  0.276048  0.138024      8.000000
  0.276048  0.276048  0.138024      8.000000
  0.414072  0.276048  0.138024      8.000000
  0.000000  0.414072  0.138024      4.000000
  0.138024  0.414072  0.138024      8.000000
  0.276048  0.414072  0.138024      8.000000
  0.414072  0.414072  0.138024      8.000000
  0.000000  0.000000  0.276048      2.000000
  0.138024  0.000000  0.276048      4.000000
  0.276048  0.000000  0.276048      4.000000
  0.414072  0.000000  0.276048      4.000000
  0.000000  0.138024  0.276048      4.000000
  0.138024  0.138024  0.276048      8.000000
  0.276048  0.138024  0.276048      8.000000
  0.414072  0.138024  0.276048      8.000000
  0.000000  0.276048  0.276048      4.000000
  0.138024  0.276048  0.276048      8.000000
  0.276048  0.276048  0.276048      8.000000
  0.414072  0.276048  0.276048      8.000000
  0.000000  0.414072  0.276048      4.000000
  0.138024  0.414072  0.276048      8.000000
  0.276048  0.414072  0.276048      8.000000
  0.414072  0.414072  0.276048      8.000000
  0.000000  0.000000  0.414072      2.000000
  0.138024  0.000000  0.414072      4.000000
  0.276048  0.000000  0.414072      4.000000
  0.414072  0.000000  0.414072      4.000000
  0.000000  0.138024  0.414072      4.000000
  0.138024  0.138024  0.414072      8.000000
  0.276048  0.138024  0.414072      8.000000
  0.414072  0.138024  0.414072      8.000000
  0.000000  0.276048  0.414072      4.000000
  0.138024  0.276048  0.414072      8.000000
  0.276048  0.276048  0.414072      8.000000
  0.414072  0.276048  0.414072      8.000000
  0.000000  0.414072  0.414072      4.000000
  0.138024  0.414072  0.414072      8.000000
  0.276048  0.414072  0.414072      8.000000
  0.414072  0.414072  0.414072      8.000000
 


--------------------------------------------------------------------------------------------------------




 Dimension of arrays:
   k-points           NKPTS =     64   k-points in BZ     NKDIM =     64   number of bands    NBANDS=     84
   number of dos      NEDOS =    301   number of ions     NIONS =     16
   non local maximal  LDIM  =      6   non local SUM 2l+1 LMDIM =     18
   total plane-waves  NPLWV =  46656
   max r-space proj   IRMAX =   4042   max aug-charges    IRDMAX=  25036
   dimension x,y,z NGX =    36 NGY =   36 NGZ =   36
   dimension x,y,z NGXF=    72 NGYF=   72 NGZF=   72
   support grid    NGXF=    72 NGYF=   72 NGZF=   72
   ions per type =               8   6   2
   NGX,Y,Z   is equivalent  to a cutoff of  10.04, 10.04, 10.04 a.u.
   NGXF,Y,Z  is equivalent  to a cutoff of  20.08, 20.08, 20.08 a.u.

 SYSTEM =  Testrun for NiMnIn                      
 POSCAR =  Ni2MnIn                                 

 Startparameter for this run:
   NWRITE =      2    write-flag & timer
   PREC   = normal    normal or accurate (medium, high low for compatibility)
   ISTART =      0    job   : 0-new  1-cont  2-samecut
   ICHARG =      2    charge: 1-file 2-atom 10-const
   ISPIN  =      2    spin polarized calculation?
   LNONCOLLINEAR =      F non collinear calculations
   LSORBIT =      F    spin-orbit coupling
   INIWAV =      1    electr: 0-lowe 1-rand  2-diag
   LASPH  =      F    aspherical Exc in radial PAW
   METAGGA=      F    non-selfconsistent MetaGGA calc.

 Electronic Relaxation 1
   ENCUT  =  550.0 eV  40.42 Ry    6.36 a.u.  11.40 11.40 11.40*2*pi/ulx,y,z
   ENINI  =  550.0     initial cutoff
   ENAUG  =  544.6 eV  augmentation charge cutoff
   NELM   =     60;   NELMIN=  2; NELMDL= -5     # of ELM steps 
   EDIFF  = 0.1E-04   stopping-criterion for ELM
   LREAL  =      T    real-space projection
   NLSPLINE    = F    spline interpolate recip. space projectors
   LCOMPAT=      F    compatible to vasp.4.4
   GGA_COMPAT  = T    GGA compatible to vasp.4.4-vasp.4.6
   LMAXPAW     = -100 max onsite density
   LMAXMIX     =    2 max onsite mixed and CHGCAR
   VOSKOWN=      0    Vosko Wilk Nusair interpolation
   ROPT   =   -0.00050  -0.00050  -0.00050
 Ionic relaxation
   EDIFFG = -.1E-01   stopping-criterion for IOM
   NSW    =   1000    number of steps for IOM
   NBLOCK =      1;   KBLOCK =   1000    inner block; outer block 
   IBRION =      2    ionic relax: 0-MD 1-quasi-New 2-CG
   NFREE  =      1    steps in history (QN), initial steepest desc. (CG)
   ISIF   =      2    stress and relaxation
   IWAVPR =     11    prediction:  0-non 1-charg 2-wave 3-comb
   ISYM   =      2    0-nonsym 1-usesym 2-fastsym
   LCORR  =      T    Harris-Foulkes like correction to forces

   POTIM  = 0.5000    time-step for ionic-motion
   TEIN   =    0.0    initial temperature
   TEBEG  =    0.0;   TEEND  =   0.0 temperature during run
   SMASS  =  -3.00    Nose mass-parameter (am)
   estimated Nose-frequenzy (Omega)   =  0.10E-29 period in steps =****** mass=  -0.812E-27a.u.
   SCALEE = 1.0000    scale energy and forces
   NPACO  =    256;   APACO  = 16.0  distance and # of slots for P.C.
   PSTRESS=    0.0 pullay stress

  Mass of Ions in am
   POMASS =  58.69 54.94114.82
  Ionic Valenz
   ZVAL   =  10.00  7.00  3.00
  Atomic Wigner-Seitz radii
   RWIGS  =  -1.00 -1.00 -1.00
  virtual crystal weights 
   VCA    =   1.00  1.00  1.00
   NELECT =     128.0000    total number of electrons
   NUPDOWN=      -1.0000    fix difference up-down

 DOS related values:
   EMIN   =  10.00;   EMAX   =-10.00  energy-range for DOS
   EFERMI =   0.00
   ISMEAR =     0;   SIGMA  =   0.02  broadening in eV -4-tet -1-fermi 0-gaus

 Electronic relaxation 2 (details)
   IALGO  =     68    algorithm
   LDIAG  =      T    sub-space diagonalisation (order eigenvalues)
   LSUBROT=      F    optimize rotation matrix (better conditioning)
   TURBO    =      0    0=normal 1=particle mesh
   IRESTART =      0    0=no restart 2=restart with 2 vectors
   NREBOOT  =      0    no. of reboots
   NMIN     =      0    reboot dimension
   EREF     =   0.00    reference energy to select bands
   IMIX   =      4    mixing-type and parameters
     AMIX     =   0.40;   BMIX     =  1.00
     AMIX_MAG =   1.60;   BMIX_MAG =  1.00
     AMIN     =   0.10
     WC   =   100.;   INIMIX=   1;  MIXPRE=   1;  MAXMIX= -45

 Intra band minimization:
   WEIMIN = 0.0010     energy-eigenvalue tresh-hold
   EBREAK =  0.30E-07  absolut break condition
   DEPER  =   0.30     relativ break condition  

   TIME   =   0.40     timestep for ELM

  volume/ion in A,a.u.               =      13.24        89.37
  Fermi-wavevector in a.u.,A,eV,Ry     =   1.383912  2.615214 26.058038  1.915212
  Thomas-Fermi vector in A             =   2.508465

 Write flags
   LWAVE        =      F    write WAVECAR
   LDOWNSAMPLE  =      F    k-point downsampling of WAVECAR
   LCHARG       =      T    write CHGCAR
   LVTOT        =      F    write LOCPOT, total local potential
   LVHAR        =      F    write LOCPOT, Hartree potential only
   LELF         =      F    write electronic localiz. function (ELF)
   LORBIT       =     11    0 simple, 1 ext, 2 COOP (PROOUT), +10 PAW based schemes


 Dipole corrections
   LMONO  =      F    monopole corrections only (constant potential shift)
   LDIPOL =      F    correct potential (dipole corrections)
   IDIPOL =      0    1-x, 2-y, 3-z, 4-all directions 
   EPSILON=  1.0000000 bulk dielectric constant

 Exchange correlation treatment:
   GGA     =    --    GGA type
   LEXCH   =     8    internal setting for exchange type
   VOSKOWN=      0    Vosko Wilk Nusair interpolation
   LHFCALC =     F    Hartree Fock is set to
   LHFONE  =     F    Hartree Fock one center treatment
   AEXX    =    0.0000 exact exchange contribution

 Linear response parameters
   LEPSILON=     F    determine dielectric tensor
   LRPA    =     F    only Hartree local field effects (RPA)
   LNABLA  =     F    use nabla operator in PAW spheres
   LVEL    =     F    velocity operator in full k-point grid
   LINTERFAST=   F  fast interpolation
   KINTER  =     0    interpolate to denser k-point grid
   CSHIFT  =0.1000    complex shift for real part using Kramers Kronig
   OMEGAMAX=  -1.0    maximum frequency
   DEG_THRESHOLD= 0.2000000E-02 threshold for treating states as degnerate
   RTIME   =   -0.100 relaxation time in fs
  (WPLASMAI=    0.000 imaginary part of plasma frequency in eV, 0.658/RTIME)
   DFIELD  = 0.0000000 0.0000000 0.0000000 field for delta impulse in time

 Orbital magnetization related:
   ORBITALMAG=     F  switch on orbital magnetization
   LCHIMAG   =     F  perturbation theory with respect to B field
   DQ        =  0.001000  dq finite difference perturbation B field
   LLRAUG    =     F  two centre corrections for induced B field



--------------------------------------------------------------------------------------------------------


 conjugate gradient relaxation of ions
 charge density and potential will be updated during run
 spin polarized calculation
 RMM-DIIS sequential band-by-band and
  variant of blocked Davidson during initial phase
 perform sub-space diagonalisation
    before iterative eigenvector-optimisation
 modified Broyden-mixing scheme, WC =      100.0
 initial mixing is a Kerker type mixing with AMIX =  0.4000 and BMIX =      1.0000
 Hartree-type preconditioning will be used
 using additional bands           20
 real space projection scheme for non local part
 use partial core corrections
 calculate Harris-corrections to forces   (improved forces if not selfconsistent)
 use gradient corrections 
 use of overlap-Matrix (Vanderbilt PP)
 Gauss-broadening in eV      SIGMA  =   0.02


--------------------------------------------------------------------------------------------------------


  energy-cutoff  :      550.00
  volume of cell :      211.89
      direct lattice vectors                 reciprocal lattice vectors
     5.961695054  0.000000000  0.000000000     0.167737530  0.000000000  0.000000000
     0.000000000  5.961695054  0.000000000     0.000000000  0.167737530  0.000000000
     0.000000000  0.000000000  5.961695054     0.000000000  0.000000000  0.167737530

  length of vectors
     5.961695054  5.961695054  5.961695054     0.167737530  0.167737530  0.167737530



 k-points in units of 2pi/SCALE and weight: k-points                                
   0.00000000  0.00000000  0.00000000       0.003
   0.13802402  0.00000000  0.00000000       0.006
   0.27604805  0.00000000  0.00000000       0.006
   0.41407207  0.00000000  0.00000000       0.006
   0.00000000  0.13802402  0.00000000       0.006
   0.13802402  0.13802402  0.00000000       0.012
   0.27604805  0.13802402  0.00000000       0.012
   0.41407207  0.13802402  0.00000000       0.012
   0.00000000  0.27604805  0.00000000       0.006
   0.13802402  0.27604805  0.00000000       0.012
   0.27604805  0.27604805  0.00000000       0.012
   0.41407207  0.27604805  0.00000000       0.012
   0.00000000  0.41407207  0.00000000       0.006
   0.13802402  0.41407207  0.00000000       0.012
   0.27604805  0.41407207  0.00000000       0.012
   0.41407207  0.41407207  0.00000000       0.012
   0.00000000  0.00000000  0.13802402       0.006
   0.13802402  0.00000000  0.13802402       0.012
   0.27604805  0.00000000  0.13802402       0.012
   0.41407207  0.00000000  0.13802402       0.012
   0.00000000  0.13802402  0.13802402       0.012
   0.13802402  0.13802402  0.13802402       0.023
   0.27604805  0.13802402  0.13802402       0.023
   0.41407207  0.13802402  0.13802402       0.023
   0.00000000  0.27604805  0.13802402       0.012
   0.13802402  0.27604805  0.13802402       0.023
   0.27604805  0.27604805  0.13802402       0.023
   0.41407207  0.27604805  0.13802402       0.023
   0.00000000  0.41407207  0.13802402       0.012
   0.13802402  0.41407207  0.13802402       0.023
   0.27604805  0.41407207  0.13802402       0.023
   0.41407207  0.41407207  0.13802402       0.023
   0.00000000  0.00000000  0.27604805       0.006
   0.13802402  0.00000000  0.27604805       0.012
   0.27604805  0.00000000  0.27604805       0.012
   0.41407207  0.00000000  0.27604805       0.012
   0.00000000  0.13802402  0.27604805       0.012
   0.13802402  0.13802402  0.27604805       0.023
   0.27604805  0.13802402  0.27604805       0.023
   0.41407207  0.13802402  0.27604805       0.023
   0.00000000  0.27604805  0.27604805       0.012
   0.13802402  0.27604805  0.27604805       0.023
   0.27604805  0.27604805  0.27604805       0.023
   0.41407207  0.27604805  0.27604805       0.023
   0.00000000  0.41407207  0.27604805       0.012
   0.13802402  0.41407207  0.27604805       0.023
   0.27604805  0.41407207  0.27604805       0.023
   0.41407207  0.41407207  0.27604805       0.023
   0.00000000  0.00000000  0.41407207       0.006
   0.13802402  0.00000000  0.41407207       0.012
   0.27604805  0.00000000  0.41407207       0.012
   0.41407207  0.00000000  0.41407207       0.012
   0.00000000  0.13802402  0.41407207       0.012
   0.13802402  0.13802402  0.41407207       0.023
   0.27604805  0.13802402  0.41407207       0.023
   0.41407207  0.13802402  0.41407207       0.023
   0.00000000  0.27604805  0.41407207       0.012
   0.13802402  0.27604805  0.41407207       0.023
   0.27604805  0.27604805  0.41407207       0.023
   0.41407207  0.27604805  0.41407207       0.023
   0.00000000  0.41407207  0.41407207       0.012
   0.13802402  0.41407207  0.41407207       0.023
   0.27604805  0.41407207  0.41407207       0.023
   0.41407207  0.41407207  0.41407207       0.023

 k-points in reciprocal lattice and weights: k-points                                
   0.00000000  0.00000000  0.00000000       0.003
   0.14285714  0.00000000  0.00000000       0.006
   0.28571429  0.00000000  0.00000000       0.006
   0.42857143  0.00000000  0.00000000       0.006
   0.00000000  0.14285714  0.00000000       0.006
   0.14285714  0.14285714  0.00000000       0.012
   0.28571429  0.14285714  0.00000000       0.012
   0.42857143  0.14285714  0.00000000       0.012
   0.00000000  0.28571429  0.00000000       0.006
   0.14285714  0.28571429  0.00000000       0.012
   0.28571429  0.28571429  0.00000000       0.012
   0.42857143  0.28571429  0.00000000       0.012
   0.00000000  0.42857143  0.00000000       0.006
   0.14285714  0.42857143  0.00000000       0.012
   0.28571429  0.42857143  0.00000000       0.012
   0.42857143  0.42857143  0.00000000       0.012
   0.00000000  0.00000000  0.14285714       0.006
   0.14285714  0.00000000  0.14285714       0.012
   0.28571429  0.00000000  0.14285714       0.012
   0.42857143  0.00000000  0.14285714       0.012
   0.00000000  0.14285714  0.14285714       0.012
   0.14285714  0.14285714  0.14285714       0.023
   0.28571429  0.14285714  0.14285714       0.023
   0.42857143  0.14285714  0.14285714       0.023
   0.00000000  0.28571429  0.14285714       0.012
   0.14285714  0.28571429  0.14285714       0.023
   0.28571429  0.28571429  0.14285714       0.023
   0.42857143  0.28571429  0.14285714       0.023
   0.00000000  0.42857143  0.14285714       0.012
   0.14285714  0.42857143  0.14285714       0.023
   0.28571429  0.42857143  0.14285714       0.023
   0.42857143  0.42857143  0.14285714       0.023
   0.00000000  0.00000000  0.28571429       0.006
   0.14285714  0.00000000  0.28571429       0.012
   0.28571429  0.00000000  0.28571429       0.012
   0.42857143  0.00000000  0.28571429       0.012
   0.00000000  0.14285714  0.28571429       0.012
   0.14285714  0.14285714  0.28571429       0.023
   0.28571429  0.14285714  0.28571429       0.023
   0.42857143  0.14285714  0.28571429       0.023
   0.00000000  0.28571429  0.28571429       0.012
   0.14285714  0.28571429  0.28571429       0.023
   0.28571429  0.28571429  0.28571429       0.023
   0.42857143  0.28571429  0.28571429       0.023
   0.00000000  0.42857143  0.28571429       0.012
   0.14285714  0.42857143  0.28571429       0.023
   0.28571429  0.42857143  0.28571429       0.023
   0.42857143  0.42857143  0.28571429       0.023
   0.00000000  0.00000000  0.42857143       0.006
   0.14285714  0.00000000  0.42857143       0.012
   0.28571429  0.00000000  0.42857143       0.012
   0.42857143  0.00000000  0.42857143       0.012
   0.00000000  0.14285714  0.42857143       0.012
   0.14285714  0.14285714  0.42857143       0.023
   0.28571429  0.14285714  0.42857143       0.023
   0.42857143  0.14285714  0.42857143       0.023
   0.00000000  0.28571429  0.42857143       0.012
   0.14285714  0.28571429  0.42857143       0.023
   0.28571429  0.28571429  0.42857143       0.023
   0.42857143  0.28571429  0.42857143       0.023
   0.00000000  0.42857143  0.42857143       0.012
   0.14285714  0.42857143  0.42857143       0.023
   0.28571429  0.42857143  0.42857143       0.023
   0.42857143  0.42857143  0.42857143       0.023

 position of ions in fractional coordinates (direct lattice) 
   0.24573838  0.25950235  0.26929563
   0.75426162  0.25950235  0.26929563
   0.24573838  0.74049765  0.26929563
   0.75426162  0.74049765  0.26929563
   0.24573838  0.25950235  0.73070437
   0.75426162  0.25950235  0.73070437
   0.24573838  0.74049765  0.73070437
   0.75426162  0.74049765  0.73070437
   0.50000000  0.50000000  0.00000000
   0.00000000  0.50000000  0.00000000
   0.00000000  0.00000000  0.50000000
   0.50000000  0.00000000  0.50000000
   0.50000000  0.50000000  0.50000000
   0.00000000  0.50000000  0.50000000
   0.00000000  0.00000000  0.00000000
   0.50000000  0.00000000  0.00000000

 position of ions in cartesian coordinates  (Angst):
   1.46501731  1.54707388  1.60545845
   4.49667775  1.54707388  1.60545845
   1.46501731  4.41462117  1.60545845
   4.49667775  4.41462117  1.60545845
   1.46501731  1.54707388  4.35623660
   4.49667775  1.54707388  4.35623660
   1.46501731  4.41462117  4.35623660
   4.49667775  4.41462117  4.35623660
   2.98084753  2.98084753  0.00000000
   0.00000000  2.98084753  0.00000000
   0.00000000  0.00000000  2.98084753
   2.98084753  0.00000000  2.98084753
   2.98084753  2.98084753  2.98084753
   0.00000000  2.98084753  2.98084753
   0.00000000  0.00000000  0.00000000
   2.98084753  0.00000000  0.00000000



--------------------------------------------------------------------------------------------------------


 k-point  1 :   0.0000 0.0000 0.0000  plane waves:    6187
 k-point  2 :   0.1429 0.0000 0.0000  plane waves:    6195
 k-point  3 :   0.2857 0.0000 0.0000  plane waves:    6195
 k-point  4 :   0.4286 0.0000 0.0000  plane waves:    6218
 k-point  5 :   0.0000 0.1429 0.0000  plane waves:    6195
 k-point  6 :   0.1429 0.1429 0.0000  plane waves:    6220
 k-point  7 :   0.2857 0.1429 0.0000  plane waves:    6226
 k-point  8 :   0.4286 0.1429 0.0000  plane waves:    6219
 k-point  9 :   0.0000 0.2857 0.0000  plane waves:    6195
 k-point 10 :   0.1429 0.2857 0.0000  plane waves:    6226
 k-point 11 :   0.2857 0.2857 0.0000  plane waves:    6202
 k-point 12 :   0.4286 0.2857 0.0000  plane waves:    6196
 k-point 13 :   0.0000 0.4286 0.0000  plane waves:    6218
 k-point 14 :   0.1429 0.4286 0.0000  plane waves:    6219
 k-point 15 :   0.2857 0.4286 0.0000  plane waves:    6196
 k-point 16 :   0.4286 0.4286 0.0000  plane waves:    6200
 k-point 17 :   0.0000 0.0000 0.1429  plane waves:    6195
 k-point 18 :   0.1429 0.0000 0.1429  plane waves:    6220
 k-point 19 :   0.2857 0.0000 0.1429  plane waves:    6226
 k-point 20 :   0.4286 0.0000 0.1429  plane waves:    6219
 k-point 21 :   0.0000 0.1429 0.1429  plane waves:    6220
 k-point 22 :   0.1429 0.1429 0.1429  plane waves:    6217
 k-point 23 :   0.2857 0.1429 0.1429  plane waves:    6206
 k-point 24 :   0.4286 0.1429 0.1429  plane waves:    6208
 k-point 25 :   0.0000 0.2857 0.1429  plane waves:    6226
 k-point 26 :   0.1429 0.2857 0.1429  plane waves:    6206
 k-point 27 :   0.2857 0.2857 0.1429  plane waves:    6210
 k-point 28 :   0.4286 0.2857 0.1429  plane waves:    6203
 k-point 29 :   0.0000 0.4286 0.1429  plane waves:    6219
 k-point 30 :   0.1429 0.4286 0.1429  plane waves:    6208
 k-point 31 :   0.2857 0.4286 0.1429  plane waves:    6203
 k-point 32 :   0.4286 0.4286 0.1429  plane waves:    6217
 k-point 33 :   0.0000 0.0000 0.2857  plane waves:    6195
 k-point 34 :   0.1429 0.0000 0.2857  plane waves:    6226
 k-point 35 :   0.2857 0.0000 0.2857  plane waves:    6202
 k-point 36 :   0.4286 0.0000 0.2857  plane waves:    6196
 k-point 37 :   0.0000 0.1429 0.2857  plane waves:    6226
 k-point 38 :   0.1429 0.1429 0.2857  plane waves:    6206
 k-point 39 :   0.2857 0.1429 0.2857  plane waves:    6210
 k-point 40 :   0.4286 0.1429 0.2857  plane waves:    6203
 k-point 41 :   0.0000 0.2857 0.2857  plane waves:    6202
 k-point 42 :   0.1429 0.2857 0.2857  plane waves:    6210
 k-point 43 :   0.2857 0.2857 0.2857  plane waves:    6217
 k-point 44 :   0.4286 0.2857 0.2857  plane waves:    6210
 k-point 45 :   0.0000 0.4286 0.2857  plane waves:    6196
 k-point 46 :   0.1429 0.4286 0.2857  plane waves:    6203
 k-point 47 :   0.2857 0.4286 0.2857  plane waves:    6210
 k-point 48 :   0.4286 0.4286 0.2857  plane waves:    6178
 k-point 49 :   0.0000 0.0000 0.4286  plane waves:    6218
 k-point 50 :   0.1429 0.0000 0.4286  plane waves:    6219
 k-point 51 :   0.2857 0.0000 0.4286  plane waves:    6196
 k-point 52 :   0.4286 0.0000 0.4286  plane waves:    6200
 k-point 53 :   0.0000 0.1429 0.4286  plane waves:    6219
 k-point 54 :   0.1429 0.1429 0.4286  plane waves:    6208
 k-point 55 :   0.2857 0.1429 0.4286  plane waves:    6203
 k-point 56 :   0.4286 0.1429 0.4286  plane waves:    6217
 k-point 57 :   0.0000 0.2857 0.4286  plane waves:    6196
 k-point 58 :   0.1429 0.2857 0.4286  plane waves:    6203
 k-point 59 :   0.2857 0.2857 0.4286  plane waves:    6210
 k-point 60 :   0.4286 0.2857 0.4286  plane waves:    6178
 k-point 61 :   0.0000 0.4286 0.4286  plane waves:    6200
 k-point 62 :   0.1429 0.4286 0.4286  plane waves:    6217
 k-point 63 :   0.2857 0.4286 0.4286  plane waves:    6178
 k-point 64 :   0.4286 0.4286 0.4286  plane waves:    6149

 maximum and minimum number of plane-waves per node :      6226     6149

 maximum number of plane-waves:      6226
 maximum index in each direction: 
   IXMAX=   11   IYMAX=   11   IZMAX=   11
   IXMIN=  -11   IYMIN=  -11   IZMIN=  -11


 serial   3D FFT for wavefunctions
 parallel 3D FFT for charge:
    minimum data exchange during FFTs selected (reduces bandwidth)


 total amount of memory used by VASP MPI-rank0   138565. kBytes
=======================================================================

   base      :      30000. kBytes
   nonlr-proj:       6813. kBytes
   fftplans  :       1269. kBytes
   grid      :       6573. kBytes
   one-center:        497. kBytes
   wavefun   :      93413. kBytes

     INWAV:  cpu time    0.0000: real time    0.0000
 Broyden mixing: mesh for mixing (old mesh)
   NGX = 23   NGY = 23   NGZ = 23
  (NGX  = 72   NGY  = 72   NGZ  = 72)
  gives a total of  12167 points

 initial charge density was supplied:
 charge density of overlapping atoms calculated
 number of electron     128.0000000 magnetization       8.8000000
 keeping initial charge density in first step


--------------------------------------------------------------------------------------------------------


 Maximum index for non-local projection operator         3887
 Maximum index for augmentation-charges         2111 (set IRDMAX)


--------------------------------------------------------------------------------------------------------


 First call to EWALD:  gamma=   0.297
 Maximum number of real-space cells 3x 3x 3
 Maximum number of reciprocal cells 3x 3x 3

    FEWALD:  cpu time    0.0021: real time    0.0021


--------------------------------------- Iteration      1(   1)  ---------------------------------------


    POTLOK:  cpu time    0.1063: real time    0.1084
    SETDIJ:  cpu time    0.0379: real time    0.0379
     EDDAV:  cpu time   38.9804: real time   39.0274
       DOS:  cpu time    0.0055: real time    0.0056
    --------------------------------------------
      LOOP:  cpu time   39.1302: real time   39.1794

 eigenvalue-minimisations  : 21504
 total energy-change (2. order) : 0.1067941E+04  (-0.5420092E+04)
 number of electron     128.0000000 magnetization       8.8000000
 augmentation part      128.0000000 magnetization       8.8000000

 Free energy of the ion-electron system (eV)
  ---------------------------------------------------
  alpha Z        PSCENC =       531.05326570
  Ewald energy   TEWEN  =     -9211.22261075
  -Hartree energ DENC   =     -3214.07166087
  -exchange      EXHF   =         0.00000000
  -V(xc)+E(xc)   XCENC  =        78.19432010
  PAW double counting   =     10320.96726947   -10647.99417394
  entropy T*S    EENTRO =        -0.00119687
  eigenvalues    EBANDS =      1981.55424155
  atomic energy  EATOM  =     11229.46195210
  Solvation  Ediel_sol  =         0.00000000
  ---------------------------------------------------
  free energy    TOTEN  =      1067.94140647 eV

  energy without entropy =     1067.94260334  energy(sigma->0) =     1067.94200491


--------------------------------------------------------------------------------------------------------




--------------------------------------- Iteration      1(   2)  ---------------------------------------


     EDDAV:  cpu time   37.9910: real time   38.0303
       DOS:  cpu time    0.0052: real time    0.0053
    --------------------------------------------
      LOOP:  cpu time   37.9962: real time   38.0356

 eigenvalue-minimisations  : 21504
 total energy-change (2. order) :-0.1067021E+04  (-0.1033638E+04)
 number of electron     128.0000000 magnetization       8.8000000
 augmentation part      128.0000000 magnetization       8.8000000

 Free energy of the ion-electron system (eV)
  ---------------------------------------------------
  alpha Z        PSCENC =       531.05326570
  Ewald energy   TEWEN  =     -9211.22261075
  -Hartree energ DENC   =     -3214.07166087
  -exchange      EXHF   =         0.00000000
  -V(xc)+E(xc)   XCENC  =        78.19432010
  PAW double counting   =     10320.96726947   -10647.99417394
  entropy T*S    EENTRO =        -0.00244670
  eigenvalues    EBANDS =       914.53403664
  atomic energy  EATOM  =     11229.46195210
  Solvation  Ediel_sol  =         0.00000000
  ---------------------------------------------------
  free energy    TOTEN  =         0.91995174 eV

  energy without entropy =        0.92239844  energy(sigma->0) =        0.92117509


--------------------------------------------------------------------------------------------------------




--------------------------------------- Iteration      1(   3)  ---------------------------------------


     EDDAV:  cpu time   41.7740: real time   41.8258
       DOS:  cpu time    0.0057: real time    0.0059
    --------------------------------------------
      LOOP:  cpu time   41.7798: real time   41.8317

 eigenvalue-minimisations  : 24108
 total energy-change (2. order) :-0.1110800E+03  (-0.9976633E+02)
 number of electron     128.0000000 magnetization       8.8000000
 augmentation part      128.0000000 magnetization       8.8000000

 Free energy of the ion-electron system (eV)
  ---------------------------------------------------
  alpha Z        PSCENC =       531.05326570
  Ewald energy   TEWEN  =     -9211.22261075
  -Hartree energ DENC   =     -3214.07166087
  -exchange      EXHF   =         0.00000000
  -V(xc)+E(xc)   XCENC  =        78.19432010
  PAW double counting   =     10320.96726947   -10647.99417394
  entropy T*S    EENTRO =        -0.00299163
  eigenvalues    EBANDS =       803.45455732
  atomic energy  EATOM  =     11229.46195210
  Solvation  Ediel_sol  =         0.00000000
  ---------------------------------------------------
  free energy    TOTEN  =      -110.16007251 eV

  energy without entropy =     -110.15708088  energy(sigma->0) =     -110.15857669


--------------------------------------------------------------------------------------------------------




--------------------------------------- Iteration      1(   4)  ---------------------------------------


     EDDAV:  cpu time   53.5750: real time   53.6382
       DOS:  cpu time    0.0058: real time    0.0059
    --------------------------------------------
      LOOP:  cpu time   53.5808: real time   53.6441

 eigenvalue-minimisations  : 32712
 total energy-change (2. order) :-0.6893109E+01  (-0.6510789E+01)
 number of electron     128.0000000 magnetization       8.8000000
 augmentation part      128.0000000 magnetization       8.8000000

 Free energy of the ion-electron system (eV)
  ---------------------------------------------------
  alpha Z        PSCENC =       531.05326570
  Ewald energy   TEWEN  =     -9211.22261075
  -Hartree energ DENC   =     -3214.07166087
  -exchange      EXHF   =         0.00000000
  -V(xc)+E(xc)   XCENC  =        78.19432010
  PAW double counting   =     10320.96726947   -10647.99417394
  entropy T*S    EENTRO =        -0.00315034
  eigenvalues    EBANDS =       796.56160667
  atomic energy  EATOM  =     11229.46195210
  Solvation  Ediel_sol  =         0.00000000
  ---------------------------------------------------
  free energy    TOTEN  =      -117.05318188 eV

  energy without entropy =     -117.05003153  energy(sigma->0) =     -117.05160671


--------------------------------------------------------------------------------------------------------




--------------------------------------- Iteration      1(   5)  ---------------------------------------


     EDDAV:  cpu time   51.7967: real time   51.9100
       DOS:  cpu time    0.0059: real time    0.0061
    CHARGE:  cpu time    1.0753: real time    1.0780
    MIXING:  cpu time    0.0016: real time    0.0016
    --------------------------------------------
      LOOP:  cpu time   52.8796: real time   52.9957

 eigenvalue-minimisations  : 31668
 total energy-change (2. order) :-0.2264154E+00  (-0.2253988E+00)
 number of electron     128.0000342 magnetization       7.6548885
 augmentation part       60.5139918 magnetization       4.9196684

 Broyden mixing:
  rms(total) = 0.34735E+01    rms(broyden)= 0.34734E+01
  rms(prec ) = 0.53570E+01
  weight for this iteration     100.00

 Free energy of the ion-electron system (eV)
  ---------------------------------------------------
  alpha Z        PSCENC =       531.05326570
  Ewald energy   TEWEN  =     -9211.22261075
  -Hartree energ DENC   =     -3214.07166087
  -exchange      EXHF   =         0.00000000
  -V(xc)+E(xc)   XCENC  =        78.19432010
  PAW double counting   =     10320.96726947   -10647.99417394
  entropy T*S    EENTRO =        -0.00316199
  eigenvalues    EBANDS =       796.33520289
  atomic energy  EATOM  =     11229.46195210
  Solvation  Ediel_sol  =         0.00000000
  ---------------------------------------------------
  free energy    TOTEN  =      -117.27959730 eV

  energy without entropy =     -117.27643531  energy(sigma->0) =     -117.27801631


--------------------------------------------------------------------------------------------------------




--------------------------------------- Iteration      1(   6)  ---------------------------------------


    POTLOK:  cpu time    0.1016: real time    0.1040
    SETDIJ:  cpu time    0.0362: real time    0.0363
    EDDIAG:  cpu time    5.2829: real time    5.2971
  RMM-DIIS:  cpu time   16.8112: real time   16.8594
    ORTHCH:  cpu time    1.0173: real time    1.0200
       DOS:  cpu time    0.0059: real time    0.0061
    CHARGE:  cpu time    1.0588: real time    1.0612
    MIXING:  cpu time    0.0017: real time    0.0017
    --------------------------------------------
      LOOP:  cpu time   24.3156: real time   24.3858

 eigenvalue-minimisations  : 21504
 total energy-change (2. order) : 0.7164963E+01  (-0.1659119E+02)
 number of electron     128.0000372 magnetization       7.4860227
 augmentation part       69.8392972 magnetization       5.7851263

 Broyden mixing:
  rms(total) = 0.46450E+01    rms(broyden)= 0.46450E+01
  rms(prec ) = 0.63076E+01
  weight for this iteration     100.00

 eigenvalues of (default mixing * dielectric matrix)
  average eigenvalue GAMMA=   0.2299
  0.2299

 Free energy of the ion-electron system (eV)
  ---------------------------------------------------
  alpha Z        PSCENC =       531.05326570
  Ewald energy   TEWEN  =     -9211.22261075
  -Hartree energ DENC   =     -2976.31914205
  -exchange      EXHF   =         0.00000000
  -V(xc)+E(xc)   XCENC  =        65.85429472
  PAW double counting   =     11111.45804025   -11404.00252308
  entropy T*S    EENTRO =        -0.00465389
  eigenvalues    EBANDS =       543.60674289
  atomic energy  EATOM  =     11229.46195210
  Solvation  Ediel_sol  =         0.00000000
  ---------------------------------------------------
  free energy    TOTEN  =      -110.11463411 eV

  energy without entropy =     -110.10998022  energy(sigma->0) =     -110.11230716


--------------------------------------------------------------------------------------------------------




--------------------------------------- Iteration      1(   7)  ---------------------------------------


    POTLOK:  cpu time    0.0976: real time    0.0978
    SETDIJ:  cpu time    0.0364: real time    0.0364
    EDDIAG:  cpu time    5.3477: real time    5.3619
  RMM-DIIS:  cpu time   16.8041: real time   16.8527
    ORTHCH:  cpu time    1.0268: real time    1.0297
       DOS:  cpu time    0.0055: real time    0.0057
    CHARGE:  cpu time    1.0847: real time    1.0873
    MIXING:  cpu time    0.0017: real time    0.0017
    --------------------------------------------
      LOOP:  cpu time   24.4045: real time   24.4731

 eigenvalue-minimisations  : 21590
 total energy-change (2. order) :-0.1348080E+01  (-0.2477571E+01)
 number of electron     128.0000380 magnetization       7.0878659
 augmentation part       70.0623715 magnetization       5.1861947

 Broyden mixing:
  rms(total) = 0.38252E+01    rms(broyden)= 0.38251E+01
  rms(prec ) = 0.71028E+01
  weight for this iteration     100.00

 eigenvalues of (default mixing * dielectric matrix)
  average eigenvalue GAMMA=   0.3928
  0.3928  0.3928

 Free energy of the ion-electron system (eV)
  ---------------------------------------------------
  alpha Z        PSCENC =       531.05326570
  Ewald energy   TEWEN  =     -9211.22261075
  -Hartree energ DENC   =     -2970.84340008
  -exchange      EXHF   =         0.00000000
  -V(xc)+E(xc)   XCENC  =        66.94231821
  PAW double counting   =     11400.00053223   -11699.53159888
  entropy T*S    EENTRO =        -0.00267835
  eigenvalues    EBANDS =       542.67950544
  atomic energy  EATOM  =     11229.46195210
  Solvation  Ediel_sol  =         0.00000000
  ---------------------------------------------------
  free energy    TOTEN  =      -111.46271440 eV

  energy without entropy =     -111.46003605  energy(sigma->0) =     -111.46137522


--------------------------------------------------------------------------------------------------------




--------------------------------------- Iteration      1(   8)  ---------------------------------------


    POTLOK:  cpu time    0.0973: real time    0.0974
    SETDIJ:  cpu time    0.0364: real time    0.0364
    EDDIAG:  cpu time    5.3742: real time    5.3905
  RMM-DIIS:  cpu time   16.8603: real time   16.9097
    ORTHCH:  cpu time    1.0252: real time    1.0279
       DOS:  cpu time    0.0057: real time    0.0059
    CHARGE:  cpu time    1.0936: real time    1.0962
    MIXING:  cpu time    0.0018: real time    0.0018
    --------------------------------------------
      LOOP:  cpu time   24.4945: real time   24.5658

 eigenvalue-minimisations  : 21505
 total energy-change (2. order) : 0.4492632E+01  (-0.2432525E+01)
 number of electron     128.0000380 magnetization       6.2818703
 augmentation part       68.5768651 magnetization       5.2164558

 Broyden mixing:
  rms(total) = 0.30293E+01    rms(broyden)= 0.30292E+01
  rms(prec ) = 0.58539E+01
  weight for this iteration     100.00

 eigenvalues of (default mixing * dielectric matrix)
  average eigenvalue GAMMA=   0.3929
  0.5130  0.5130  0.1526

 Free energy of the ion-electron system (eV)
  ---------------------------------------------------
  alpha Z        PSCENC =       531.05326570
  Ewald energy   TEWEN  =     -9211.22261075
  -Hartree energ DENC   =     -3018.57657470
  -exchange      EXHF   =         0.00000000
  -V(xc)+E(xc)   XCENC  =        69.93790648
  PAW double counting   =     11718.73927630   -12039.04962285
  entropy T*S    EENTRO =        -0.00316185
  eigenvalues    EBANDS =       612.68948757
  atomic energy  EATOM  =     11229.46195210
  Solvation  Ediel_sol  =         0.00000000
  ---------------------------------------------------
  free energy    TOTEN  =      -106.97008201 eV

  energy without entropy =     -106.96692016  energy(sigma->0) =     -106.96850109


--------------------------------------------------------------------------------------------------------




--------------------------------------- Iteration      1(   9)  ---------------------------------------


    POTLOK:  cpu time    0.1097: real time    0.1104
    SETDIJ:  cpu time    0.0364: real time    0.0364
    EDDIAG:  cpu time    5.3893: real time    5.4032
  RMM-DIIS:  cpu time   16.8943: real time   16.9421
    ORTHCH:  cpu time    1.0260: real time    1.0293
       DOS:  cpu time    0.0059: real time    0.0061
    CHARGE:  cpu time    1.0790: real time    1.0816
    MIXING:  cpu time    0.0019: real time    0.0019
    --------------------------------------------
      LOOP:  cpu time   24.5423: real time   24.6111

 eigenvalue-minimisations  : 21541
 total energy-change (2. order) : 0.3183229E+01  (-0.7571875E+00)
 number of electron     128.0000362 magnetization       6.5899868
 augmentation part       66.7378531 magnetization       4.2490228

 Broyden mixing:
  rms(total) = 0.19420E+01    rms(broyden)= 0.19419E+01
  rms(prec ) = 0.31018E+01
  weight for this iteration     100.00

 eigenvalues of (default mixing * dielectric matrix)
  average eigenvalue GAMMA=   0.4611
  0.9405  0.5130  0.2598  0.1309

 Free energy of the ion-electron system (eV)
  ---------------------------------------------------
  alpha Z        PSCENC =       531.05326570
  Ewald energy   TEWEN  =     -9211.22261075
  -Hartree energ DENC   =     -3036.62033679
  -exchange      EXHF   =         0.00000000
  -V(xc)+E(xc)   XCENC  =        70.97976870
  PAW double counting   =     11924.39600305   -12254.56285018
  entropy T*S    EENTRO =        -0.00373319
  eigenvalues    EBANDS =       642.73168831
  atomic energy  EATOM  =     11229.46195210
  Solvation  Ediel_sol  =         0.00000000
  ---------------------------------------------------
  free energy    TOTEN  =      -103.78685306 eV

  energy without entropy =     -103.78311987  energy(sigma->0) =     -103.78498646


--------------------------------------------------------------------------------------------------------




--------------------------------------- Iteration      1(  10)  ---------------------------------------


    POTLOK:  cpu time    0.0975: real time    0.0976
    SETDIJ:  cpu time    0.0363: real time    0.0363
    EDDIAG:  cpu time    5.4022: real time    5.4182
  RMM-DIIS:  cpu time   16.9272: real time   16.9747
    ORTHCH:  cpu time    1.0265: real time    1.0293
       DOS:  cpu time    0.0056: real time    0.0058
    CHARGE:  cpu time    1.0841: real time    1.0867
    MIXING:  cpu time    0.0020: real time    0.0020
    --------------------------------------------
      LOOP:  cpu time   24.5813: real time   24.6507

 eigenvalue-minimisations  : 21511
 total energy-change (2. order) : 0.1067867E+01  (-0.2196039E+00)
 number of electron     128.0000373 magnetization       7.1004719
 augmentation part       67.5632928 magnetization       4.9124761

 Broyden mixing:
  rms(total) = 0.11367E+01    rms(broyden)= 0.11366E+01
  rms(prec ) = 0.15620E+01
  weight for this iteration     100.00

 eigenvalues of (default mixing * dielectric matrix)
  average eigenvalue GAMMA=   0.4475
  1.0076  0.4460  0.4460  0.2021  0.1359

 Free energy of the ion-electron system (eV)
  ---------------------------------------------------
  alpha Z        PSCENC =       531.05326570
  Ewald energy   TEWEN  =     -9211.22261075
  -Hartree energ DENC   =     -3020.95167097
  -exchange      EXHF   =         0.00000000
  -V(xc)+E(xc)   XCENC  =        70.78017040
  PAW double counting   =     12194.18710042   -12526.96533023
  entropy T*S    EENTRO =        -0.00303945
  eigenvalues    EBANDS =       630.94117638
  atomic energy  EATOM  =     11229.46195210
  Solvation  Ediel_sol  =         0.00000000
  ---------------------------------------------------
  free energy    TOTEN  =      -102.71898641 eV

  energy without entropy =     -102.71594696  energy(sigma->0) =     -102.71746668


--------------------------------------------------------------------------------------------------------




--------------------------------------- Iteration      1(  11)  ---------------------------------------


    POTLOK:  cpu time    0.0978: real time    0.0980
    SETDIJ:  cpu time    0.0364: real time    0.0365
    EDDIAG:  cpu time    5.4140: real time    5.4283
  RMM-DIIS:  cpu time   17.0254: real time   17.0737
    ORTHCH:  cpu time    1.0251: real time    1.0278
       DOS:  cpu time    0.0060: real time    0.0081
    CHARGE:  cpu time    1.0802: real time    1.0828
    MIXING:  cpu time    0.0020: real time    0.0020
    --------------------------------------------
      LOOP:  cpu time   24.6870: real time   24.7573

 eigenvalue-minimisations  : 21541
 total energy-change (2. order) :-0.5796508E-01  (-0.5288122E-01)
 number of electron     128.0000369 magnetization       7.5472906
 augmentation part       67.4770196 magnetization       5.0839652

 Broyden mixing:
  rms(total) = 0.82112E+00    rms(broyden)= 0.82111E+00
  rms(prec ) = 0.10073E+01
  weight for this iteration     100.00

 eigenvalues of (default mixing * dielectric matrix)
  average eigenvalue GAMMA=   0.4429
  0.9671  0.4940  0.4940  0.3861  0.1862  0.1303

 Free energy of the ion-electron system (eV)
  ---------------------------------------------------
  alpha Z        PSCENC =       531.05326570
  Ewald energy   TEWEN  =     -9211.22261075
  -Hartree energ DENC   =     -3019.96155650
  -exchange      EXHF   =         0.00000000
  -V(xc)+E(xc)   XCENC  =        71.76980331
  PAW double counting   =     12318.61403646   -12654.34190868
  entropy T*S    EENTRO =        -0.00263049
  eigenvalues    EBANDS =       631.85269738
  atomic energy  EATOM  =     11229.46195210
  Solvation  Ediel_sol  =         0.00000000
  ---------------------------------------------------
  free energy    TOTEN  =      -102.77695148 eV

  energy without entropy =     -102.77432099  energy(sigma->0) =     -102.77563624


--------------------------------------------------------------------------------------------------------




--------------------------------------- Iteration      1(  12)  ---------------------------------------


    POTLOK:  cpu time    0.1125: real time    0.1133
    SETDIJ:  cpu time    0.0383: real time    0.0383
    EDDIAG:  cpu time    5.4762: real time    5.4819
  RMM-DIIS:  cpu time   17.1646: real time   17.1828
    ORTHCH:  cpu time    1.0316: real time    1.0325
       DOS:  cpu time    0.0057: real time    0.0059
    CHARGE:  cpu time    1.0760: real time    1.0768
    MIXING:  cpu time    0.0023: real time    0.0023
    --------------------------------------------
      LOOP:  cpu time   24.9071: real time   24.9337

 eigenvalue-minimisations  : 21556
 total energy-change (2. order) :-0.1369718E+00  (-0.2757547E-01)
 number of electron     128.0000368 magnetization       8.6880123
 augmentation part       67.3737853 magnetization       6.4031022

 Broyden mixing:
  rms(total) = 0.64600E+00    rms(broyden)= 0.64599E+00
  rms(prec ) = 0.77209E+00
  weight for this iteration     100.00

 eigenvalues of (default mixing * dielectric matrix)
  average eigenvalue GAMMA=   0.5978
  1.3837  0.9304  0.6575  0.6575  0.1316  0.1944  0.2293

 Free energy of the ion-electron system (eV)
  ---------------------------------------------------
  alpha Z        PSCENC =       531.05326570
  Ewald energy   TEWEN  =     -9211.22261075
  -Hartree energ DENC   =     -3020.24833958
  -exchange      EXHF   =         0.00000000
  -V(xc)+E(xc)   XCENC  =        72.69808403
  PAW double counting   =     12412.64593963   -12750.62376963
  entropy T*S    EENTRO =        -0.00201176
  eigenvalues    EBANDS =       633.32356704
  atomic energy  EATOM  =     11229.46195210
  Solvation  Ediel_sol  =         0.00000000
  ---------------------------------------------------
  free energy    TOTEN  =      -102.91392324 eV

  energy without entropy =     -102.91191147  energy(sigma->0) =     -102.91291736


--------------------------------------------------------------------------------------------------------




--------------------------------------- Iteration      1(  13)  ---------------------------------------


    POTLOK:  cpu time    0.0989: real time    0.0992
    SETDIJ:  cpu time    0.0362: real time    0.0362
    EDDIAG:  cpu time    5.4593: real time    5.4650
  RMM-DIIS:  cpu time   17.3485: real time   17.3633
    ORTHCH:  cpu time    1.0270: real time    1.0278
       DOS:  cpu time    0.0059: real time    0.0061
    CHARGE:  cpu time    1.0887: real time    1.0894
    MIXING:  cpu time    0.0023: real time    0.0023
    --------------------------------------------
      LOOP:  cpu time   25.0667: real time   25.0894

 eigenvalue-minimisations  : 21973
 total energy-change (2. order) :-0.2688039E+00  (-0.4026652E-01)
 number of electron     128.0000369 magnetization       8.9148629
 augmentation part       67.7309646 magnetization       6.4768418

 Broyden mixing:
  rms(total) = 0.39705E+00    rms(broyden)= 0.39704E+00
  rms(prec ) = 0.59592E+00
  weight for this iteration     100.00

 eigenvalues of (default mixing * dielectric matrix)
  average eigenvalue GAMMA=   0.6246
  1.8324  0.7823  0.7823  0.6159  0.4289  0.1316  0.2317  0.1918

 Free energy of the ion-electron system (eV)
  ---------------------------------------------------
  alpha Z        PSCENC =       531.05326570
  Ewald energy   TEWEN  =     -9211.22261075
  -Hartree energ DENC   =     -3011.15889740
  -exchange      EXHF   =         0.00000000
  -V(xc)+E(xc)   XCENC  =        74.73647239
  PAW double counting   =     12702.36183976   -13044.58513539
  entropy T*S    EENTRO =        -0.00181220
  eigenvalues    EBANDS =       626.17219868
  atomic energy  EATOM  =     11229.46195210
  Solvation  Ediel_sol  =         0.00000000
  ---------------------------------------------------
  free energy    TOTEN  =      -103.18272711 eV

  energy without entropy =     -103.18091492  energy(sigma->0) =     -103.18182102


--------------------------------------------------------------------------------------------------------




--------------------------------------- Iteration      1(  14)  ---------------------------------------


    POTLOK:  cpu time    0.0974: real time    0.0976
    SETDIJ:  cpu time    0.0363: real time    0.0364
    EDDIAG:  cpu time    5.4737: real time    5.4783
  RMM-DIIS:  cpu time   17.4095: real time   17.4238
    ORTHCH:  cpu time    1.0288: real time    1.0297
       DOS:  cpu time    0.0047: real time    0.0049
    CHARGE:  cpu time    1.0878: real time    1.0885
    MIXING:  cpu time    0.0025: real time    0.0025
    --------------------------------------------
      LOOP:  cpu time   25.1406: real time   25.1616

 eigenvalue-minimisations  : 21881
 total energy-change (2. order) : 0.2973867E-01  (-0.1653935E-01)
 number of electron     128.0000368 magnetization       9.0730014
 augmentation part       67.6653340 magnetization       6.6481353

 Broyden mixing:
  rms(total) = 0.21604E+00    rms(broyden)= 0.21603E+00
  rms(prec ) = 0.30286E+00
  weight for this iteration     100.00

 eigenvalues of (default mixing * dielectric matrix)
  average eigenvalue GAMMA=   0.6441
  2.1091  0.8846  0.8846  0.5405  0.5405  0.1316  0.1945  0.2273  0.2841

 Free energy of the ion-electron system (eV)
  ---------------------------------------------------
  alpha Z        PSCENC =       531.05326570
  Ewald energy   TEWEN  =     -9211.22261075
  -Hartree energ DENC   =     -3011.51484256
  -exchange      EXHF   =         0.00000000
  -V(xc)+E(xc)   XCENC  =        75.17601618
  PAW double counting   =     12773.70653202   -13117.40128285
  entropy T*S    EENTRO =        -0.00212474
  eigenvalues    EBANDS =       627.59010647
  atomic energy  EATOM  =     11229.46195210
  Solvation  Ediel_sol  =         0.00000000
  ---------------------------------------------------
  free energy    TOTEN  =      -103.15298844 eV

  energy without entropy =     -103.15086370  energy(sigma->0) =     -103.15192607


--------------------------------------------------------------------------------------------------------




--------------------------------------- Iteration      1(  15)  ---------------------------------------


    POTLOK:  cpu time    0.1027: real time    0.1034
    SETDIJ:  cpu time    0.0362: real time    0.0363
    EDDIAG:  cpu time    5.4748: real time    5.4795
  RMM-DIIS:  cpu time   19.5376: real time   19.5538
    ORTHCH:  cpu time    1.0216: real time    1.0224
       DOS:  cpu time    0.0055: real time    0.0057
    CHARGE:  cpu time    1.0806: real time    1.0813
    MIXING:  cpu time    0.0026: real time    0.0026
    --------------------------------------------
      LOOP:  cpu time   27.2617: real time   27.2850

 eigenvalue-minimisations  : 24185
 total energy-change (2. order) :-0.1151088E-02  (-0.4280016E-02)
 number of electron     128.0000368 magnetization       9.1332279
 augmentation part       67.6532770 magnetization       6.7047269

 Broyden mixing:
  rms(total) = 0.10651E+00    rms(broyden)= 0.10651E+00
  rms(prec ) = 0.16348E+00
  weight for this iteration     100.00

 eigenvalues of (default mixing * dielectric matrix)
  average eigenvalue GAMMA=   0.6993
  2.2083  1.0638  1.0638  0.6490  0.6490  0.5347  0.1316  0.1940  0.2257  0.2728

 Free energy of the ion-electron system (eV)
  ---------------------------------------------------
  alpha Z        PSCENC =       531.05326570
  Ewald energy   TEWEN  =     -9211.22261075
  -Hartree energ DENC   =     -3011.39991365
  -exchange      EXHF   =         0.00000000
  -V(xc)+E(xc)   XCENC  =        75.21472615
  PAW double counting   =     12826.20399143   -13170.58005839
  entropy T*S    EENTRO =        -0.00209185
  eigenvalues    EBANDS =       628.11659973
  atomic energy  EATOM  =     11229.46195210
  Solvation  Ediel_sol  =         0.00000000
  ---------------------------------------------------
  free energy    TOTEN  =      -103.15413953 eV

  energy without entropy =     -103.15204769  energy(sigma->0) =     -103.15309361


--------------------------------------------------------------------------------------------------------




--------------------------------------- Iteration      1(  16)  ---------------------------------------


    POTLOK:  cpu time    0.0973: real time    0.0975
    SETDIJ:  cpu time    0.0362: real time    0.0363
    EDDIAG:  cpu time    5.4900: real time    5.4948
  RMM-DIIS:  cpu time   17.5945: real time   17.6090
    ORTHCH:  cpu time    1.0247: real time    1.0257
       DOS:  cpu time    0.0059: real time    0.0061
    CHARGE:  cpu time    1.0852: real time    1.0859
    MIXING:  cpu time    0.0028: real time    0.0028
    --------------------------------------------
[...]
     79      10.8252      0.00000
     80      11.2753      0.00000
     81      11.6358      0.00000
     82      11.8093      0.00000
     83      12.2969      0.00000
     84      12.3463      0.00000


--------------------------------------------------------------------------------------------------------


 soft charge-density along one line, spin component           1
         0         1         2         3         4         5         6         7         8         9
 total charge-density along one line

 soft charge-density along one line, spin component           2
         0         1         2         3         4         5         6         7         8         9
 total charge-density along one line

 pseudopotential strength for first ion, spin component:           1
 -1.714  -0.006   0.013  -0.013  -0.003  -2.346  -0.006   0.012
 -0.006  -1.712   0.010  -0.011  -0.016  -0.006  -2.344   0.010
  0.013   0.010  -1.746   0.023   0.007   0.012   0.010  -2.377
 -0.013  -0.011   0.023  -1.720   0.036  -0.012  -0.010   0.022
 -0.003  -0.016   0.007   0.036  -1.749  -0.003  -0.016   0.007
 -2.346  -0.006   0.012  -0.012  -0.003  -2.909  -0.006   0.012
 -0.006  -2.344   0.010  -0.010  -0.016  -0.006  -2.907   0.009
  0.012   0.010  -2.377   0.022   0.007   0.012   0.009  -2.938
 -0.012  -0.010   0.022  -2.352   0.034  -0.012  -0.010   0.021
 -0.003  -0.016   0.007   0.034  -2.380  -0.003  -0.015   0.006
  0.002  -0.004  -0.001  -0.008   0.001   0.002  -0.004  -0.001
  0.004  -0.008  -0.001  -0.014   0.002   0.004  -0.007  -0.001
 -0.000  -0.005   0.004  -0.002   0.007  -0.000  -0.005   0.004
 -0.002  -0.008  -0.010   0.000  -0.000  -0.002  -0.007  -0.010
 -0.008  -0.002  -0.000  -0.005   0.000  -0.008  -0.002  -0.000
 -0.000  -0.004   0.005  -0.003   0.008  -0.000  -0.004   0.004
 -0.003  -0.008  -0.010   0.000  -0.000  -0.003  -0.008  -0.009
 -0.008  -0.003   0.000  -0.004   0.000  -0.008  -0.003   0.000
 pseudopotential strength for first ion, spin component:           2
 -1.527   0.007   0.012  -0.003   0.002  -2.168   0.007   0.011
  0.007  -1.523  -0.009  -0.009   0.018   0.007  -2.165  -0.009
  0.012  -0.009  -1.482  -0.020   0.008   0.011  -0.009  -2.125
 -0.003  -0.009  -0.020  -1.542  -0.030  -0.003  -0.009  -0.019
  0.002   0.018   0.008  -0.030  -1.467   0.002   0.017   0.008
 -2.168   0.007   0.011  -0.003   0.002  -2.740   0.007   0.011
  0.007  -2.165  -0.009  -0.009   0.017   0.007  -2.736  -0.009
  0.011  -0.009  -2.125  -0.019   0.008   0.011  -0.009  -2.698
 -0.003  -0.009  -0.019  -2.183  -0.029  -0.003  -0.008  -0.018
  0.002   0.017   0.008  -0.029  -2.111   0.002   0.016   0.007
  0.003   0.002   0.002   0.007   0.003   0.003   0.002   0.002
  0.005   0.004   0.003   0.012   0.005   0.005   0.004   0.003
  0.001  -0.009   0.004   0.002   0.007   0.001  -0.009   0.004
  0.002  -0.004  -0.011   0.001   0.000   0.002  -0.004  -0.011
 -0.004   0.002  -0.001  -0.009   0.001  -0.004   0.002  -0.001
  0.001  -0.010   0.004   0.003   0.007   0.001  -0.010   0.003
  0.003  -0.003  -0.011   0.001   0.000   0.003  -0.004  -0.011
 -0.003   0.003  -0.001  -0.010   0.002  -0.003   0.003  -0.001
 total augmentation occupancy for first ion, spin component:           1
  2.039  -0.030   0.051   0.008  -0.012  -0.553   0.020  -0.034  -0.038   0.007  -0.025   0.002   0.011   0.005   0.043  -0.001
 -0.030   2.076   0.023   0.004   0.004   0.020  -0.580  -0.012  -0.007  -0.010  -0.083   0.033   0.021   0.037   0.003  -0.011
  0.051   0.023   2.738  -0.007   0.019  -0.034  -0.011  -1.044   0.009  -0.013  -0.023   0.004   0.011  -0.079  -0.009   0.003
  0.008   0.004  -0.007   2.035  -0.010  -0.038  -0.007   0.010  -0.557   0.017   0.010   0.003   0.000   0.001   0.026   0.000
 -0.012   0.004   0.019  -0.010   2.794   0.007  -0.010  -0.013   0.017  -1.078  -0.010  -0.002   0.020   0.004   0.028   0.006
 -0.553   0.020  -0.034  -0.038   0.007   0.854  -0.014   0.025   0.057  -0.005   0.015  -0.001  -0.012  -0.004  -0.018   0.001
  0.020  -0.580  -0.011  -0.007  -0.010  -0.014   0.871   0.012   0.007   0.001   0.051  -0.021   0.010  -0.014  -0.002   0.001
 -0.034  -0.012  -1.044   0.010  -0.013   0.025   0.012   1.108  -0.009   0.011   0.020  -0.004  -0.012   0.076   0.009   0.002
 -0.038  -0.007   0.009  -0.557   0.017   0.057   0.007  -0.009   0.858  -0.018  -0.008  -0.002  -0.000  -0.007   0.005  -0.000
  0.007  -0.010  -0.013   0.017  -1.078  -0.005   0.001   0.011  -0.018   1.121   0.003   0.002  -0.021  -0.003  -0.024   0.003
 -0.025  -0.083  -0.023   0.010  -0.010   0.015   0.051   0.020  -0.008   0.003   2.122  -0.280   0.031   0.062  -0.013  -0.003
  0.002   0.033   0.004   0.003  -0.002  -0.001  -0.021  -0.004  -0.002   0.002  -0.280   0.047   0.004  -0.000   0.002  -0.001
  0.011   0.021   0.011   0.000   0.020  -0.012   0.010  -0.012  -0.000  -0.021   0.031   0.004   0.254   0.000   0.001  -0.027
  0.005   0.037  -0.079   0.001   0.004  -0.004  -0.014   0.076  -0.007  -0.003   0.062  -0.000   0.000   0.259   0.000  -0.002
  0.043   0.003  -0.009   0.026   0.028  -0.018  -0.002   0.009   0.005  -0.024  -0.013   0.002   0.001   0.000   0.258  -0.000
 -0.001  -0.011   0.003   0.000   0.006   0.001   0.001   0.002  -0.000   0.003  -0.003  -0.001  -0.027  -0.002  -0.000   0.003
  0.000  -0.012  -0.005  -0.001   0.000  -0.000   0.002  -0.008   0.001  -0.000  -0.007  -0.000  -0.002  -0.027  -0.000   0.000
 -0.012   0.000   0.001  -0.011  -0.001   0.002  -0.000  -0.001   0.000   0.002   0.002  -0.000  -0.000  -0.000  -0.027   0.000
 total augmentation occupancy for first ion, spin component:           2
  0.348  -0.156   0.056  -0.080   0.018  -0.215   0.154  -0.050   0.081  -0.008   0.031   0.002   0.012   0.085   0.042  -0.000
 -0.156   0.316  -0.037   0.003   0.152   0.154  -0.187   0.004   0.000  -0.083   0.043  -0.001  -0.046   0.033   0.085   0.001
  0.056  -0.037   0.483  -0.203   0.008  -0.048   0.004  -0.236   0.114  -0.005   0.018   0.001   0.001   0.022  -0.012   0.001
 -0.080   0.003  -0.203   0.251  -0.313   0.081   0.000   0.112  -0.145   0.173   0.115  -0.002   0.084  -0.001  -0.040  -0.004
  0.018   0.152   0.008  -0.313   0.560  -0.007  -0.083  -0.005   0.175  -0.277   0.011   0.002   0.015   0.003   0.005   0.001
 -0.215   0.154  -0.048   0.081  -0.007   0.110  -0.139   0.040  -0.074   0.001  -0.022   0.002  -0.011  -0.063  -0.027   0.001
  0.154  -0.187   0.004   0.000  -0.083  -0.139   0.086   0.014  -0.002   0.037  -0.027   0.005   0.030  -0.020  -0.063  -0.003
 -0.050   0.004  -0.236   0.112  -0.005   0.040   0.014   0.075  -0.053   0.003  -0.013   0.001  -0.003  -0.021   0.008  -0.001
  0.081   0.000   0.114  -0.145   0.175  -0.074  -0.002  -0.053   0.061  -0.080  -0.076   0.013  -0.062   0.000   0.024   0.006
 -0.008  -0.083  -0.005   0.173  -0.277   0.001   0.037   0.003  -0.080   0.093  -0.007  -0.000  -0.015  -0.003  -0.002  -0.001
  0.031   0.043   0.018   0.115   0.011  -0.022  -0.027  -0.013  -0.076  -0.007  -0.041   0.011   0.003  -0.006  -0.008   0.002
  0.002  -0.001   0.001  -0.002   0.002   0.002   0.005   0.001   0.013  -0.000   0.011  -0.002   0.003  -0.002   0.001  -0.000
  0.012  -0.046   0.001   0.084   0.015  -0.011   0.030  -0.003  -0.062  -0.015   0.003   0.003   0.003  -0.007  -0.002  -0.000
  0.085   0.033   0.022  -0.001   0.003  -0.063  -0.020  -0.021   0.000  -0.003  -0.006  -0.002  -0.007  -0.004  -0.014   0.001
  0.042   0.085  -0.012  -0.040   0.005  -0.027  -0.063   0.008   0.024  -0.002  -0.008   0.001  -0.002  -0.014  -0.001   0.000
 -0.000   0.001   0.001  -0.004   0.001   0.001  -0.003  -0.001   0.006  -0.001   0.002  -0.000  -0.000   0.001   0.000   0.000
 -0.003  -0.002  -0.002   0.000  -0.001   0.005   0.003   0.002   0.000   0.000  -0.001   0.000   0.001   0.000   0.002  -0.000
 -0.002  -0.003   0.001   0.001   0.000   0.003   0.005  -0.001  -0.002  -0.000   0.001  -0.000   0.000   0.002   0.000  -0.000


------------------------ aborting loop because EDIFF is reached ----------------------------------------





 total charge     

# of ion       s       p       d       tot
------------------------------------------
    1        0.475   0.425   8.375   9.275
    2        0.474   0.423   8.367   9.264
    3        0.473   0.426   8.384   9.283
    4        0.474   0.424   8.386   9.284
    5        0.474   0.424   8.386   9.284
    6        0.473   0.426   8.384   9.283
    7        0.474   0.423   8.367   9.264
    8        0.475   0.425   8.375   9.275
    9        0.319   0.308   4.889   5.516
   10        0.323   0.310   4.920   5.553
   11        0.340   0.335   4.950   5.625
   12        0.334   0.318   4.947   5.598
   13        0.350   0.359   4.921   5.630
   14        0.357   0.367   4.961   5.685
   15        1.252   1.703   0.306   3.261
   16        1.236   1.673   0.287   3.196
--------------------------------------------------
tot          8.301   8.768  97.206 114.276



 magnetization (x)

# of ion       s       p       d       tot
------------------------------------------
    1       -0.002   0.004   0.257   0.259
    2       -0.004  -0.004   0.254   0.245
    3       -0.004   0.000   0.252   0.249
    4       -0.006  -0.003   0.242   0.234
    5       -0.006  -0.003   0.242   0.234
    6       -0.004   0.000   0.252   0.249
    7       -0.004  -0.004   0.254   0.245
    8       -0.002   0.004   0.257   0.259
    9        0.036   0.053   3.584   3.673
   10       -0.039  -0.035  -3.518  -3.591
   11        0.021   0.032   3.454   3.507
   12        0.036   0.015   3.535   3.586
   13       -0.037  -0.054  -3.295  -3.385
   14        0.030   0.032   3.272   3.334
   15        0.019  -0.038  -0.007  -0.025
   16       -0.021  -0.039   0.003  -0.056
--------------------------------------------------
tot          0.015  -0.040   9.041   9.016

    CHARGE:  cpu time    1.0446: real time    1.0454
    FORLOC:  cpu time    0.0072: real time    0.0072
    FORNL :  cpu time    8.0636: real time    8.0747
    STRESS:  cpu time   24.2521: real time   24.2819
    FORCOR:  cpu time    0.1014: real time    0.1016
    FORHAR:  cpu time    0.0160: real time    0.0160
    MIXING:  cpu time    0.0041: real time    0.0041
    OFIELD:  cpu time    0.0000: real time    0.0000

  FORCE on cell =-STRESS in cart. coord.  units (eV):
  Direction    XX          YY          ZZ          XY          YZ          ZX
  --------------------------------------------------------------------------------------
  Alpha Z   531.05327   531.05327   531.05327
  Ewald   -2844.39630 -3089.15503 -3277.69967     0.00000     0.00000    -0.00000
  Hartree  1219.29474   982.03797   809.09067    -0.00000    -0.00000    -0.00000
  E(xc)    -670.15214  -670.49645  -670.22891     0.00000     0.00000     0.00000
  Local    -729.46497  -253.18279   113.13158     0.00000     0.00000     0.00000
  n-local  -147.27368  -146.42554  -146.21977    -0.25902    -0.27056    -0.25528
  augment  1578.50379  1581.57976  1577.84395    -0.00000     0.00000    -0.00000
  Kinetic  1061.32283  1064.67625  1060.61427     0.89823     1.05812     1.21329
  Fock        0.00000     0.00000     0.00000     0.00000     0.00000     0.00000
  -------------------------------------------------------------------------------------
  Total      -1.11248     0.08744    -2.41462     0.00000     0.00000     0.00000
  in kB      -8.41185     0.66114   -18.25786     0.00000     0.00000     0.00000
  external pressure =       -8.67 kB  Pullay stress =        0.00 kB


 VOLUME and BASIS-vectors are now :
 -----------------------------------------------------------------------------
  energy-cutoff  :      550.00
  volume of cell :      211.89
      direct lattice vectors                 reciprocal lattice vectors
     5.961695054  0.000000000  0.000000000     0.167737530  0.000000000  0.000000000
     0.000000000  5.961695054  0.000000000     0.000000000  0.167737530  0.000000000
     0.000000000  0.000000000  5.961695054     0.000000000  0.000000000  0.167737530

  length of vectors
     5.961695054  5.961695054  5.961695054     0.167737530  0.167737530  0.167737530


 FORCES acting on ions
    electron-ion (+dipol)            ewald-force                    non-local-force                 convergence-correction
 -----------------------------------------------------------------------------------------------
   -.229E+02 0.123E+03 0.178E+03   0.230E+02 -.121E+03 -.176E+03   -.384E-01 -.228E+01 -.234E+01   0.563E-02 0.461E-02 0.310E-01
   0.229E+02 0.123E+03 0.178E+03   -.230E+02 -.121E+03 -.176E+03   0.384E-01 -.228E+01 -.234E+01   -.563E-02 0.461E-02 0.310E-01
   -.229E+02 -.123E+03 0.178E+03   0.230E+02 0.121E+03 -.176E+03   -.384E-01 0.228E+01 -.234E+01   0.563E-02 -.461E-02 0.310E-01
   0.229E+02 -.123E+03 0.178E+03   -.230E+02 0.121E+03 -.176E+03   0.384E-01 0.228E+01 -.234E+01   -.563E-02 -.461E-02 0.310E-01
   -.229E+02 0.123E+03 -.178E+03   0.230E+02 -.121E+03 0.176E+03   -.384E-01 -.228E+01 0.234E+01   0.563E-02 0.461E-02 -.310E-01
   0.229E+02 0.123E+03 -.178E+03   -.230E+02 -.121E+03 0.176E+03   0.384E-01 -.228E+01 0.234E+01   -.563E-02 0.461E-02 -.310E-01
   -.229E+02 -.123E+03 -.178E+03   0.230E+02 0.121E+03 0.176E+03   -.384E-01 0.228E+01 0.234E+01   0.563E-02 -.461E-02 -.310E-01
   0.229E+02 -.123E+03 -.178E+03   -.230E+02 0.121E+03 0.176E+03   0.384E-01 0.228E+01 0.234E+01   -.563E-02 -.461E-02 -.310E-01
   0.207E-12 0.142E-11 0.127E-11   0.714E-13 0.100E-13 -.595E-13   0.000E+00 0.000E+00 0.000E+00   0.546E-13 -.279E-13 0.341E-13
   -.397E-13 0.221E-12 -.816E-13   0.286E-13 0.313E-13 -.265E-14   0.000E+00 0.000E+00 0.000E+00   -.843E-14 -.299E-13 0.329E-13
   -.390E-13 -.437E-13 0.222E-12   0.259E-13 0.369E-13 0.430E-13   0.000E+00 0.000E+00 0.000E+00   0.135E-13 0.121E-13 -.448E-13
   0.194E-12 -.414E-13 0.273E-11   0.316E-13 -.119E-12 0.369E-15   0.000E+00 0.000E+00 0.000E+00   0.264E-13 0.302E-13 -.579E-13
   0.188E-12 0.248E-12 0.132E-11   -.578E-13 0.895E-13 0.303E-13   0.000E+00 0.000E+00 0.000E+00   0.400E-13 -.276E-13 -.432E-13
   -.475E-13 0.203E-12 0.207E-12   -.115E-12 0.326E-13 -.123E-13   0.000E+00 0.000E+00 0.000E+00   0.351E-14 -.264E-13 -.279E-13
   -.175E-13 -.138E-13 -.226E-13   0.154E-13 0.152E-14 -.651E-14   0.000E+00 0.000E+00 0.000E+00   -.649E-14 0.501E-14 0.170E-13
   -.956E-14 0.312E-13 0.557E-12   0.421E-14 -.198E-13 -.243E-13   0.000E+00 0.000E+00 0.000E+00   0.613E-14 0.705E-14 0.195E-13
 -----------------------------------------------------------------------------------------------
   0.336E-11 0.100E-10 -.716E-10   0.811E-14 0.770E-13 -.317E-14   0.139E-16 0.000E+00 0.000E+00   0.336E-12 0.280E-13 -.331E-12


 POSITION                                       TOTAL-FORCE (eV/Angst)
 -----------------------------------------------------------------------------------
      1.46502      1.54707      1.60546        -0.000984     -0.001305     -0.002459
      4.49668      1.54707      1.60546         0.000984     -0.001305     -0.002459
      1.46502      4.41462      1.60546        -0.000984      0.001305     -0.002459
      4.49668      4.41462      1.60546         0.000984      0.001305     -0.002459
      1.46502      1.54707      4.35624        -0.000984     -0.001305      0.002459
      4.49668      1.54707      4.35624         0.000984     -0.001305      0.002459
      1.46502      4.41462      4.35624        -0.000984      0.001305      0.002459
      4.49668      4.41462      4.35624         0.000984      0.001305      0.002459
      2.98085      2.98085      0.00000         0.000000      0.000000      0.000000
      0.00000      2.98085      0.00000         0.000000      0.000000      0.000000
      0.00000      0.00000      2.98085         0.000000      0.000000      0.000000
      2.98085      0.00000      2.98085         0.000000      0.000000      0.000000
      2.98085      2.98085      2.98085         0.000000      0.000000      0.000000
      0.00000      2.98085      2.98085         0.000000      0.000000      0.000000
      0.00000      0.00000      0.00000         0.000000      0.000000      0.000000
      2.98085      0.00000      0.00000         0.000000      0.000000      0.000000
 -----------------------------------------------------------------------------------
    total drift:                                0.000000      0.000000     -0.000000


--------------------------------------------------------------------------------------------------------



  FREE ENERGIE OF THE ION-ELECTRON SYSTEM (eV)
  ---------------------------------------------------
  free  energy   TOTEN  =      -103.15335386 eV

  energy  without entropy=     -103.15115138  energy(sigma->0) =     -103.15225262



--------------------------------------------------------------------------------------------------------


    POTLOK:  cpu time    0.1347: real time    0.1348


--------------------------------------------------------------------------------------------------------




--------------------------------------------------------------------------------------------------------


  
 reached required accuracy - stopping structural energy minimisation
     LOOP+:  cpu time  660.8503: real time  661.9711
    4ORBIT:  cpu time    0.0000: real time    0.0000



 total charge     

# of ion       s       p       d       tot
------------------------------------------
    1        0.475   0.425   8.375   9.275
    2        0.474   0.423   8.367   9.264
    3        0.473   0.426   8.384   9.283
    4        0.474   0.424   8.386   9.284
    5        0.474   0.424   8.386   9.284
    6        0.473   0.426   8.384   9.283
    7        0.474   0.423   8.367   9.264
    8        0.475   0.425   8.375   9.275
    9        0.319   0.308   4.889   5.516
   10        0.323   0.310   4.920   5.553
   11        0.340   0.335   4.950   5.625
   12        0.334   0.318   4.947   5.598
   13        0.350   0.359   4.921   5.630
   14        0.357   0.367   4.961   5.685
   15        1.252   1.703   0.306   3.261
   16        1.236   1.673   0.287   3.196
--------------------------------------------------
tot          8.301   8.768  97.206 114.276



 magnetization (x)

# of ion       s       p       d       tot
------------------------------------------
    1       -0.002   0.004   0.257   0.259
    2       -0.004  -0.004   0.254   0.245
    3       -0.004   0.000   0.252   0.249
    4       -0.006  -0.003   0.242   0.234
    5       -0.006  -0.003   0.242   0.234
    6       -0.004   0.000   0.252   0.249
    7       -0.004  -0.004   0.254   0.245
    8       -0.002   0.004   0.257   0.259
    9        0.036   0.053   3.584   3.673
   10       -0.039  -0.035  -3.518  -3.591
   11        0.021   0.032   3.454   3.507
   12        0.036   0.015   3.535   3.586
   13       -0.037  -0.054  -3.295  -3.385
   14        0.030   0.032   3.272   3.334
   15        0.019  -0.038  -0.007  -0.025
   16       -0.021  -0.039   0.003  -0.056
--------------------------------------------------
tot          0.015  -0.040   9.041   9.016


 total amount of memory used by VASP MPI-rank0   138565. kBytes
=======================================================================

   base      :      30000. kBytes
   nonlr-proj:       6813. kBytes
   fftplans  :       1269. kBytes
   grid      :       6573. kBytes
   one-center:        497. kBytes
   wavefun   :      93413. kBytes

  
  
 General timing and accounting informations for this job:
 ========================================================
  
                  Total CPU time used (sec):      676.050
                            User time (sec):      640.027
                          System time (sec):       36.023
                         Elapsed time (sec):      678.510
  
                   Maximum memory used (kb):      181460.
                   Average memory used (kb):           0.
  
                          Minor page faults:     16563455
                          Major page faults:           12
                 Voluntary context switches:         2494
