 vasp.5.4.4.18Apr17-6-g9f103f2a35 (build May 21 2018 20:56:50) complex           
 executed on             LinuxGNU date 2021.10.15  15:49:33
 running on   12 total cores
 distrk:  each k-point on   12 cores,    1 groups
 distr:  one band on NCORES_PER_BAND=   1 cores,   12 groups


--------------------------------------------------------------------------------------------------------


 INCAR:
 POTCAR:    PAW_PBE Ni 02Aug2007                  
 POTCAR:    PAW_PBE Mn 06Sep2000                  
 POTCAR:    PAW_PBE In 08Apr2002                  

 ----------------------------------------------------------------------------- 
|                                                                             |
|           W    W    AA    RRRRR   N    N  II  N    N   GGGG   !!!           |
|           W    W   A  A   R    R  NN   N  II  NN   N  G    G  !!!           |
|           W    W  A    A  R    R  N N  N  II  N N  N  G       !!!           |
|           W WW W  AAAAAA  RRRRR   N  N N  II  N  N N  G  GGG   !            |
|           WW  WW  A    A  R   R   N   NN  II  N   NN  G    G                |
|           W    W  A    A  R    R  N    N  II  N    N   GGGG   !!!           |
|                                                                             |
|      For optimal performance we recommend to set                            |
|        NCORE= 4 - approx SQRT( number of cores)                             |
|      NCORE specifies how many cores store one orbital (NPAR=cpu/NCORE).     |
|      This setting can  greatly improve the performance of VASP for DFT.     |
|      The default,   NCORE=1            might be grossly inefficient         |
|      on modern multi-core architectures or massively parallel machines.     |
|      Do your own testing !!!!                                               |
|      Unfortunately you need to use the default for GW and RPA calculations. |
|      (for HF NCORE is supported but not extensively tested yet)             |
|                                                                             |
 ----------------------------------------------------------------------------- 

 POTCAR:    PAW_PBE Ni 02Aug2007                  
   VRHFIN =Ni:                                                                  
   LEXCH  = PE                                                                  
   EATOM  =  1077.6739 eV,   79.2068 Ry                                         
                                                                                
   TITEL  = PAW_PBE Ni 02Aug2007                                                
   LULTRA =        F    use ultrasoft PP ?                                      
   IUNSCR =        1    unscreen: 0-lin 1-nonlin 2-no                           
   RPACOR =    2.000    partial core radius                                     
   POMASS =   58.690; ZVAL   =   10.000    mass and valenz                      
   RCORE  =    2.300    outmost cutoff radius                                   
   RWIGS  =    2.430; RWIGS  =    1.286    wigner-seitz radius (au A)           
   ENMAX  =  269.532; ENMIN  =  202.149 eV                                      
   RCLOC  =    1.201    cutoff for local pot                                    
   LCOR   =        T    correct aug charges                                     
   LPAW   =        T    paw PP                                                  
   EAUG   =  544.565                                                            
   DEXC   =    0.000                                                            
   RMAX   =    2.357    core radius for proj-oper                               
   RAUG   =    1.300    factor for augmentation sphere                          
   RDEP   =    2.390    radius for radial grids                                 
   RDEPT  =    1.838    core radius for aug-charge                              
                                                                                
   Atomic configuration                                                         
    9 entries                                                                   
     n  l   j            E        occ.                                          
     1  0  0.50     -8206.4253   2.0000                                         
     2  0  0.50      -976.1748   2.0000                                         
     2  1  1.50      -839.0571   6.0000                                         
     3  0  0.50      -105.9991   2.0000                                         
     3  1  1.50       -66.4603   6.0000                                         
     3  2  2.50        -4.6458   9.0000                                         
     4  0  0.50        -4.4926   1.0000                                         
     4  1  1.50        -4.0817   0.0000                                         
     4  3  2.50        -1.3606   0.0000                                         
   Description                                                                  
     l       E           TYP  RCUT    TYP  RCUT                                 
     2     -4.6457903     23  2.300                                             
     2     -6.0063729     23  2.300                                             
     0     -4.4925590     23  2.300                                             
     0      5.0102601     23  2.300                                             
     1     -2.7211652     23  2.300                                             
     1     16.5183231     23  2.300                                             
  local pseudopotential read in
  partial core-charges read in
  partial kinetic energy density read in
  atomic valenz-charges read in
  non local Contribution for L=           2  read in
    real space projection operators read in
  non local Contribution for L=           2  read in
    real space projection operators read in
  non local Contribution for L=           0  read in
    real space projection operators read in
  non local Contribution for L=           0  read in
    real space projection operators read in
  non local Contribution for L=           1  read in
    real space projection operators read in
  non local Contribution for L=           1  read in
    real space projection operators read in
    PAW grid and wavefunctions read in

   number of l-projection  operators is LMAX  =           6
   number of lm-projection operators is LMMAX =          18

 POTCAR:    PAW_PBE Mn 06Sep2000                  
   VRHFIN =Mn: d6 s1                                                            
   LEXCH  = PE                                                                  
   EATOM  =   416.7541 eV,   30.6306 Ry                                         
                                                                                
   TITEL  = PAW_PBE Mn 06Sep2000                                                
   LULTRA =        F    use ultrasoft PP ?                                      
   IUNSCR =        1    unscreen: 0-lin 1-nonlin 2-no                           
   RPACOR =    2.000    partial core radius                                     
   POMASS =   54.938; ZVAL   =    7.000    mass and valenz                      
   RCORE  =    2.300    outmost cutoff radius                                   
   RWIGS  =    2.500; RWIGS  =    1.323    wigner-seitz radius (au A)           
   ENMAX  =  269.864; ENMIN  =  202.398 eV                                      
   RCLOC  =    1.725    cutoff for local pot                                    
   LCOR   =        T    correct aug charges                                     
   LPAW   =        T    paw PP                                                  
   EAUG   =  500.711                                                            
   DEXC   =    0.000                                                            
   RMAX   =    2.343    core radius for proj-oper                               
   RAUG   =    1.300    factor for augmentation sphere                          
   RDEP   =    2.338    radius for radial grids                                 
   RDEPT  =    1.911    core radius for aug-charge                              
                                                                                
   Atomic configuration                                                         
    9 entries                                                                   
     n  l   j            E        occ.                                          
     1  0  0.50     -6424.8288   2.0000                                         
     2  0  0.50      -739.1154   2.0000                                         
     2  1  1.50      -625.3949   6.0000                                         
     3  0  0.50       -81.6100   2.0000                                         
     3  1  1.50       -50.4667   6.0000                                         
     3  2  2.50        -3.3745   6.0000                                         
     4  0  0.50        -4.1331   1.0000                                         
     4  1  0.50        -4.0817   0.0000                                         
     4  3  2.50        -1.3606   0.0000                                         
   Description                                                                  
     l       E           TYP  RCUT    TYP  RCUT                                 
     2     -3.3744664     23  2.300                                             
     2     -4.7350490     23  2.300                                             
     0     -4.1331408     23  2.300                                             
     0      7.6656614     23  2.300                                             
     1     -2.7211652     23  2.300                                             
     1     20.4087390     23  2.300                                             
  local pseudopotential read in
  partial core-charges read in
  partial kinetic energy density read in
  atomic valenz-charges read in
  non local Contribution for L=           2  read in
    real space projection operators read in
  non local Contribution for L=           2  read in
    real space projection operators read in
  non local Contribution for L=           0  read in
    real space projection operators read in
  non local Contribution for L=           0  read in
    real space projection operators read in
  non local Contribution for L=           1  read in
    real space projection operators read in
  non local Contribution for L=           1  read in
    real space projection operators read in
    PAW grid and wavefunctions read in

   number of l-projection  operators is LMAX  =           6
   number of lm-projection operators is LMMAX =          18

 POTCAR:    PAW_PBE In 08Apr2002                  
   VRHFIN =In: s2p1                                                             
   LEXCH  = PE                                                                  
   EATOM  =    53.7908 eV,    3.9535 Ry                                         
                                                                                
   TITEL  = PAW_PBE In 08Apr2002                                                
   LULTRA =        F    use ultrasoft PP ?                                      
   IUNSCR =        1    unscreen: 0-lin 1-nonlin 2-no                           
   RPACOR =    2.400    partial core radius                                     
   POMASS =  114.820; ZVAL   =    3.000    mass and valenz                      
   RCORE  =    3.100    outmost cutoff radius                                   
   RWIGS  =    3.170; RWIGS  =    1.677    wigner-seitz radius (au A)           
   ENMAX  =   95.934; ENMIN  =   71.951 eV                                      
   ICORE  =        3    local potential                                         
   LCOR   =        T    correct aug charges                                     
   LPAW   =        T    paw PP                                                  
   EAUG   =  237.125                                                            
   DEXC   =    0.000                                                            
   RMAX   =    3.168    core radius for proj-oper                               
   RAUG   =    1.300    factor for augmentation sphere                          
   RDEP   =    3.187    radius for radial grids                                 
   RDEPT  =    2.711    core radius for aug-charge                              
                                                                                
   Atomic configuration                                                         
   13 entries                                                                   
     n  l   j            E        occ.                                          
     1  0  0.50    -27747.9169   2.0000                                         
     2  0  0.50     -4154.4438   2.0000                                         
     2  1  1.50     -3728.4305   6.0000                                         
     3  0  0.50      -788.3680   2.0000                                         
     3  1  1.50      -648.9215   6.0000                                         
     3  2  2.50      -432.5893  10.0000                                         
     4  0  0.50      -119.6363   2.0000                                         
     4  1  1.50       -78.1086   6.0000                                         
     4  2  2.50       -18.6227  10.0000                                         
     5  0  0.50        -8.2107   2.0000                                         
     5  1  0.50        -2.5185   1.0000                                         
     5  2  2.50        -1.3606   0.0000                                         
     4  3  2.50        -2.7212   0.0000                                         
   Description                                                                  
     l       E           TYP  RCUT    TYP  RCUT                                 
     0     -8.2107306     23  3.100                                             
     0     -6.1485975     23  3.100                                             
     1     -2.5184867     23  3.100                                             
     1      3.2427302     23  3.100                                             
     2     -1.3605826     23  3.100                                             
     3     -1.3605826     23  3.100                                             
  local pseudopotential read in
  partial core-charges read in
  partial kinetic energy density read in
  atomic valenz-charges read in
  non local Contribution for L=           0  read in
    real space projection operators read in
  non local Contribution for L=           0  read in
    real space projection operators read in
  non local Contribution for L=           1  read in
    real space projection operators read in
  non local Contribution for L=           1  read in
    real space projection operators read in
  non local Contribution for L=           2  read in
    real space projection operators read in
    PAW grid and wavefunctions read in

   number of l-projection  operators is LMAX  =           5
   number of lm-projection operators is LMMAX =          13

 Optimization of the real space projectors (new method)

 maximal supplied QI-value         = 16.25
 optimisation between [QCUT,QGAM] = [ 11.86, 23.89] = [ 39.41,159.82] Ry 
 Optimized for a Real-space Cutoff    1.33 Angstroem

   l    n(q)    QCUT    max X(q) W(low)/X(q) W(high)/X(q)  e(spline) 
   2      9    11.864    60.317    0.21E-03    0.51E-03    0.25E-06
   2      9    11.864    55.921    0.21E-03    0.51E-03    0.26E-06
   0      9    11.864    51.690    0.22E-03    0.30E-04    0.17E-06
   0      9    11.864    30.015    0.20E-03    0.28E-04    0.15E-06
   1      9    11.864    18.849    0.76E-04    0.33E-03    0.17E-06
   1      9    11.864    14.624    0.60E-04    0.28E-03    0.15E-06
 Optimization of the real space projectors (new method)

 maximal supplied QI-value         = 16.25
 optimisation between [QCUT,QGAM] = [ 11.86, 23.89] = [ 39.41,159.82] Ry 
 Optimized for a Real-space Cutoff    1.36 Angstroem

   l    n(q)    QCUT    max X(q) W(low)/X(q) W(high)/X(q)  e(spline) 
   2      9    11.864   110.144    0.49E-03    0.50E-03    0.21E-06
   2      9    11.864   103.200    0.49E-03    0.51E-03    0.22E-06
   0     10    11.864    68.437    0.12E-03    0.41E-04    0.21E-06
   0     10    11.864    33.971    0.11E-03    0.36E-04    0.19E-06
   1      9    11.864    17.065    0.24E-03    0.26E-03    0.93E-07
   1      9    11.864    12.540    0.19E-03    0.20E-03    0.80E-07
 Optimization of the real space projectors (new method)

 maximal supplied QI-value         = 12.09
 optimisation between [QCUT,QGAM] = [ 11.97, 23.95] = [ 40.14,160.58] Ry 
 Optimized for a Real-space Cutoff    1.63 Angstroem

   l    n(q)    QCUT    max X(q) W(low)/X(q) W(high)/X(q)  e(spline) 
   0     12    11.973   106.980    0.33E-03    0.16E-03    0.25E-05
   0     12    11.973    81.086    0.37E-03    0.18E-03    0.28E-05
   1     11    11.973    53.097    0.22E-03    0.42E-03    0.40E-05
   1     11    11.973    32.621    0.20E-03    0.40E-03    0.37E-05
   2     11    11.973     8.820    0.30E-03    0.17E-03    0.41E-06
  PAW_PBE Ni 02Aug2007                  :
 energy of atom  1       EATOM=-1077.6739
 kinetic energy error for atom=    0.0027 (will be added to EATOM!!)
  PAW_PBE Mn 06Sep2000                  :
 energy of atom  2       EATOM= -416.7541
 kinetic energy error for atom=    0.0022 (will be added to EATOM!!)
  PAW_PBE In 08Apr2002                  :
 energy of atom  3       EATOM=  -53.7908
 kinetic energy error for atom=    0.0000 (will be added to EATOM!!)


 POSCAR: Ni2MnIn                                 
  positions in direct lattice
  velocities in cartesian coordinates
 exchange correlation table for  LEXCH =        8
   RHO(1)=    0.500       N(1)  =     2000
   RHO(2)=  100.500       N(2)  =     4000



--------------------------------------------------------------------------------------------------------


 ion  position               nearest neighbor table
   1  0.247  0.247  0.254-  12 2.54  13 2.57  14 2.57  15 2.57  16 2.59  11 2.59   9 2.59  10 2.62
                             5 2.93   3 2.94   2 2.94   3 3.02   2 3.02   5 3.03
   2  0.753  0.247  0.254-  12 2.54  13 2.57  14 2.57  15 2.57  16 2.59  11 2.59   9 2.59  10 2.62
                             6 2.93   4 2.94   1 2.94   4 3.02   1 3.02   6 3.03
   3  0.247  0.753  0.254-  12 2.54  13 2.57  14 2.57  15 2.57  16 2.59  11 2.59   9 2.59  10 2.62
                             7 2.93   4 2.94   1 2.94   4 3.02   1 3.02   7 3.03
   4  0.753  0.753  0.254-  12 2.54  13 2.57  14 2.57  15 2.57  16 2.59  11 2.59   9 2.59  10 2.62
                             8 2.93   3 2.94   2 2.94   2 3.02   3 3.02   8 3.03
   5  0.247  0.247  0.746-  12 2.54  13 2.57  14 2.57  15 2.57  16 2.59  11 2.59   9 2.59  10 2.62
                             1 2.93   6 2.94   7 2.94   7 3.02   6 3.02   1 3.03
   6  0.753  0.247  0.746-  12 2.54  13 2.57  14 2.57  15 2.57  16 2.59  11 2.59   9 2.59  10 2.62
                             2 2.93   5 2.94   8 2.94   8 3.02   5 3.02   2 3.03
   7  0.247  0.753  0.746-  12 2.54  13 2.57  14 2.57  15 2.57  16 2.59  11 2.59   9 2.59  10 2.62
                             3 2.93   5 2.94   8 2.94   8 3.02   5 3.02   3 3.03
   8  0.753  0.753  0.746-  12 2.54  13 2.57  14 2.57  15 2.57  16 2.59  11 2.59   9 2.59  10 2.62
                             4 2.93   6 2.94   7 2.94   6 3.02   7 3.02   4 3.03
   9  0.500  0.000  0.000-   1 2.59   2 2.59   3 2.59   4 2.59   5 2.59   6 2.59   7 2.59   8 2.59
                            10 2.98  13 2.98  15 2.98  13 2.98  10 2.98  15 2.98
  10  0.500  0.500  0.000-   1 2.62   2 2.62   3 2.62   4 2.62   5 2.62   6 2.62   7 2.62   8 2.62
                             9 2.98  11 2.98  16 2.98  16 2.98   9 2.98  11 2.98
  11  0.000  0.500  0.000-   1 2.59   2 2.59   3 2.59   4 2.59   5 2.59   6 2.59   7 2.59   8 2.59
                            10 2.98  14 2.98  15 2.98  14 2.98  15 2.98  10 2.98
  12  0.000  0.000  0.500-   1 2.54   2 2.54   3 2.54   4 2.54   5 2.54   6 2.54   7 2.54   8 2.54
                            13 2.98  14 2.98  15 2.98  15 2.98  14 2.98  13 2.98
  13  0.500  0.000  0.500-   1 2.57   2 2.57   3 2.57   4 2.57   5 2.57   6 2.57   7 2.57   8 2.57
                             9 2.98  12 2.98  16 2.98   9 2.98  16 2.98  12 2.98
  14  0.000  0.500  0.500-   1 2.57   2 2.57   3 2.57   4 2.57   5 2.57   6 2.57   7 2.57   8 2.57
                            11 2.98  12 2.98  16 2.98  11 2.98  12 2.98  16 2.98
  15  0.000  0.000  0.000-   1 2.57   2 2.57   3 2.57   4 2.57   5 2.57   6 2.57   7 2.57   8 2.57
                             9 2.98  11 2.98  12 2.98  12 2.98  11 2.98   9 2.98
  16  0.500  0.500  0.500-   1 2.59   2 2.59   3 2.59   4 2.59   5 2.59   6 2.59   7 2.59   8 2.59
                            10 2.98  13 2.98  14 2.98  10 2.98  13 2.98  14 2.98

  LATTYP: Found a simple cubic cell.
 ALAT       =     5.9582922956
  
  Lattice vectors:
  
 A1 = (   5.9582922956,   0.0000000000,   0.0000000000)
 A2 = (   0.0000000000,   5.9582922956,   0.0000000000)
 A3 = (   0.0000000000,   0.0000000000,   5.9582922956)


Analysis of symmetry for initial positions (statically):
=====================================================================
 Subroutine PRICEL returns:
 Original cell was already a primitive cell.
 

 Routine SETGRP: Setting up the symmetry group for a 
 simple cubic supercell.


 Subroutine GETGRP returns: Found 16 space group operations
 (whereof 16 operations were pure point group operations)
 out of a pool of 48 trial point group operations.


The static configuration has the point symmetry D_4h.


Analysis of symmetry for dynamics (positions and initial velocities):
=====================================================================
 Subroutine PRICEL returns:
 Original cell was already a primitive cell.
 

 Routine SETGRP: Setting up the symmetry group for a 
 simple cubic supercell.


 Subroutine GETGRP returns: Found 16 space group operations
 (whereof 16 operations were pure point group operations)
 out of a pool of 48 trial point group operations.


The dynamic configuration has the point symmetry D_4h.


Analysis of structural, dynamic, and magnetic symmetry:
=====================================================================
 Subroutine PRICEL returns:
 Original cell was already a primitive cell.
 

 Routine SETGRP: Setting up the symmetry group for a 
 simple cubic supercell.


 Subroutine GETGRP returns: Found 16 space group operations
 (whereof 16 operations were pure point group operations)
 out of a pool of 48 trial point group operations.


The magnetic configuration has the point symmetry D_4h.


 Subroutine INISYM returns: Found 16 space group operations
 (whereof 16 operations are pure point group operations),
 and found     1 'primitive' translations



 KPOINTS: k-points                                

Automatic generation of k-mesh.
Space group operators:
 irot       det(A)        alpha          n_x          n_y          n_z        tau_x        tau_y        tau_z
    1     1.000000     0.000000     1.000000     0.000000     0.000000     0.000000     0.000000     0.000000
    2    -1.000000     0.000000     1.000000     0.000000     0.000000     0.000000     0.000000     0.000000
    3     1.000000    90.000000     0.000000     0.000000    -1.000000     0.000000     0.000000     0.000000
    4    -1.000000    90.000000     0.000000     0.000000    -1.000000     0.000000     0.000000     0.000000
    5     1.000000   180.000000     0.000000     0.000000     1.000000     0.000000     0.000000     0.000000
    6    -1.000000   180.000000     0.000000     0.000000     1.000000     0.000000     0.000000     0.000000
    7     1.000000    90.000000     0.000000     0.000000     1.000000     0.000000     0.000000     0.000000
    8    -1.000000    90.000000     0.000000     0.000000     1.000000     0.000000     0.000000     0.000000
    9     1.000000   180.000000     1.000000     0.000000     0.000000     0.000000     0.000000     0.000000
   10    -1.000000   180.000000     1.000000     0.000000     0.000000     0.000000     0.000000     0.000000
   11     1.000000   180.000000     0.707107     0.707107     0.000000     0.000000     0.000000     0.000000
   12    -1.000000   180.000000     0.707107     0.707107     0.000000     0.000000     0.000000     0.000000
   13     1.000000   180.000000     0.000000     1.000000     0.000000     0.000000     0.000000     0.000000
   14    -1.000000   180.000000     0.000000     1.000000     0.000000     0.000000     0.000000     0.000000
   15     1.000000   180.000000     0.707107    -0.707107     0.000000     0.000000     0.000000     0.000000
   16    -1.000000   180.000000     0.707107    -0.707107     0.000000     0.000000     0.000000     0.000000
 
 Subroutine IBZKPT returns following result:
 ===========================================
 
 Found     40 irreducible k-points:
 
 Following reciprocal coordinates:
            Coordinates               Weight
  0.000000  0.000000  0.000000      1.000000
  0.142857  0.000000  0.000000      4.000000
  0.285714  0.000000  0.000000      4.000000
  0.428571  0.000000  0.000000      4.000000
  0.142857  0.142857  0.000000      4.000000
  0.285714  0.142857  0.000000      8.000000
  0.428571  0.142857  0.000000      8.000000
  0.285714  0.285714  0.000000      4.000000
  0.428571  0.285714  0.000000      8.000000
  0.428571  0.428571  0.000000      4.000000
  0.000000  0.000000  0.142857      2.000000
  0.142857  0.000000  0.142857      8.000000
  0.285714  0.000000  0.142857      8.000000
  0.428571  0.000000  0.142857      8.000000
  0.142857  0.142857  0.142857      8.000000
  0.285714  0.142857  0.142857     16.000000
  0.428571  0.142857  0.142857     16.000000
  0.285714  0.285714  0.142857      8.000000
  0.428571  0.285714  0.142857     16.000000
  0.428571  0.428571  0.142857      8.000000
  0.000000  0.000000  0.285714      2.000000
  0.142857  0.000000  0.285714      8.000000
  0.285714  0.000000  0.285714      8.000000
  0.428571  0.000000  0.285714      8.000000
  0.142857  0.142857  0.285714      8.000000
  0.285714  0.142857  0.285714     16.000000
  0.428571  0.142857  0.285714     16.000000
  0.285714  0.285714  0.285714      8.000000
  0.428571  0.285714  0.285714     16.000000
  0.428571  0.428571  0.285714      8.000000
  0.000000  0.000000  0.428571      2.000000
  0.142857  0.000000  0.428571      8.000000
  0.285714  0.000000  0.428571      8.000000
  0.428571  0.000000  0.428571      8.000000
  0.142857  0.142857  0.428571      8.000000
  0.285714  0.142857  0.428571     16.000000
  0.428571  0.142857  0.428571     16.000000
  0.285714  0.285714  0.428571      8.000000
  0.428571  0.285714  0.428571     16.000000
  0.428571  0.428571  0.428571      8.000000
 
 Following cartesian coordinates:
            Coordinates               Weight
  0.000000  0.000000  0.000000      1.000000
  0.138103  0.000000  0.000000      4.000000
  0.276206  0.000000  0.000000      4.000000
  0.414309  0.000000  0.000000      4.000000
  0.138103  0.138103  0.000000      4.000000
  0.276206  0.138103  0.000000      8.000000
  0.414309  0.138103  0.000000      8.000000
  0.276206  0.276206  0.000000      4.000000
  0.414309  0.276206  0.000000      8.000000
  0.414309  0.414309  0.000000      4.000000
  0.000000  0.000000  0.138103      2.000000
  0.138103  0.000000  0.138103      8.000000
  0.276206  0.000000  0.138103      8.000000
  0.414309  0.000000  0.138103      8.000000
  0.138103  0.138103  0.138103      8.000000
  0.276206  0.138103  0.138103     16.000000
  0.414309  0.138103  0.138103     16.000000
  0.276206  0.276206  0.138103      8.000000
  0.414309  0.276206  0.138103     16.000000
  0.414309  0.414309  0.138103      8.000000
  0.000000  0.000000  0.276206      2.000000
  0.138103  0.000000  0.276206      8.000000
  0.276206  0.000000  0.276206      8.000000
  0.414309  0.000000  0.276206      8.000000
  0.138103  0.138103  0.276206      8.000000
  0.276206  0.138103  0.276206     16.000000
  0.414309  0.138103  0.276206     16.000000
  0.276206  0.276206  0.276206      8.000000
  0.414309  0.276206  0.276206     16.000000
  0.414309  0.414309  0.276206      8.000000
  0.000000  0.000000  0.414309      2.000000
  0.138103  0.000000  0.414309      8.000000
  0.276206  0.000000  0.414309      8.000000
  0.414309  0.000000  0.414309      8.000000
  0.138103  0.138103  0.414309      8.000000
  0.276206  0.138103  0.414309     16.000000
  0.414309  0.138103  0.414309     16.000000
  0.276206  0.276206  0.414309      8.000000
  0.414309  0.276206  0.414309     16.000000
  0.414309  0.414309  0.414309      8.000000
 


--------------------------------------------------------------------------------------------------------




 Dimension of arrays:
   k-points           NKPTS =     40   k-points in BZ     NKDIM =     40   number of bands    NBANDS=     84
   number of dos      NEDOS =    301   number of ions     NIONS =     16
   non local maximal  LDIM  =      6   non local SUM 2l+1 LMDIM =     18
   total plane-waves  NPLWV =  46656
   max r-space proj   IRMAX =   4048   max aug-charges    IRDMAX=  25079
   dimension x,y,z NGX =    36 NGY =   36 NGZ =   36
   dimension x,y,z NGXF=    72 NGYF=   72 NGZF=   72
   support grid    NGXF=    72 NGYF=   72 NGZF=   72
   ions per type =               8   6   2
   NGX,Y,Z   is equivalent  to a cutoff of  10.04, 10.04, 10.04 a.u.
   NGXF,Y,Z  is equivalent  to a cutoff of  20.09, 20.09, 20.09 a.u.

 SYSTEM =  Testrun for NiMnIn                      
 POSCAR =  Ni2MnIn                                 

 Startparameter for this run:
   NWRITE =      2    write-flag & timer
   PREC   = normal    normal or accurate (medium, high low for compatibility)
   ISTART =      0    job   : 0-new  1-cont  2-samecut
   ICHARG =      2    charge: 1-file 2-atom 10-const
   ISPIN  =      2    spin polarized calculation?
   LNONCOLLINEAR =      F non collinear calculations
   LSORBIT =      F    spin-orbit coupling
   INIWAV =      1    electr: 0-lowe 1-rand  2-diag
   LASPH  =      F    aspherical Exc in radial PAW
   METAGGA=      F    non-selfconsistent MetaGGA calc.

 Electronic Relaxation 1
   ENCUT  =  550.0 eV  40.42 Ry    6.36 a.u.  11.39 11.39 11.39*2*pi/ulx,y,z
   ENINI  =  550.0     initial cutoff
   ENAUG  =  544.6 eV  augmentation charge cutoff
   NELM   =     60;   NELMIN=  2; NELMDL= -5     # of ELM steps 
   EDIFF  = 0.1E-04   stopping-criterion for ELM
   LREAL  =      T    real-space projection
   NLSPLINE    = F    spline interpolate recip. space projectors
   LCOMPAT=      F    compatible to vasp.4.4
   GGA_COMPAT  = T    GGA compatible to vasp.4.4-vasp.4.6
   LMAXPAW     = -100 max onsite density
   LMAXMIX     =    2 max onsite mixed and CHGCAR
   VOSKOWN=      0    Vosko Wilk Nusair interpolation
   ROPT   =   -0.00050  -0.00050  -0.00050
 Ionic relaxation
   EDIFFG = -.1E-01   stopping-criterion for IOM
   NSW    =   1000    number of steps for IOM
   NBLOCK =      1;   KBLOCK =   1000    inner block; outer block 
   IBRION =      2    ionic relax: 0-MD 1-quasi-New 2-CG
   NFREE  =      1    steps in history (QN), initial steepest desc. (CG)
   ISIF   =      2    stress and relaxation
   IWAVPR =     11    prediction:  0-non 1-charg 2-wave 3-comb
   ISYM   =      2    0-nonsym 1-usesym 2-fastsym
   LCORR  =      T    Harris-Foulkes like correction to forces

   POTIM  = 0.5000    time-step for ionic-motion
   TEIN   =    0.0    initial temperature
   TEBEG  =    0.0;   TEEND  =   0.0 temperature during run
   SMASS  =  -3.00    Nose mass-parameter (am)
   estimated Nose-frequenzy (Omega)   =  0.10E-29 period in steps =****** mass=  -0.811E-27a.u.
   SCALEE = 1.0000    scale energy and forces
   NPACO  =    256;   APACO  = 16.0  distance and # of slots for P.C.
   PSTRESS=    0.0 pullay stress

  Mass of Ions in am
   POMASS =  58.69 54.94114.82
  Ionic Valenz
   ZVAL   =  10.00  7.00  3.00
  Atomic Wigner-Seitz radii
   RWIGS  =  -1.00 -1.00 -1.00
  virtual crystal weights 
   VCA    =   1.00  1.00  1.00
   NELECT =     128.0000    total number of electrons
   NUPDOWN=      -1.0000    fix difference up-down

 DOS related values:
   EMIN   =  10.00;   EMAX   =-10.00  energy-range for DOS
   EFERMI =   0.00
   ISMEAR =     0;   SIGMA  =   0.02  broadening in eV -4-tet -1-fermi 0-gaus

 Electronic relaxation 2 (details)
   IALGO  =     68    algorithm
   LDIAG  =      T    sub-space diagonalisation (order eigenvalues)
   LSUBROT=      F    optimize rotation matrix (better conditioning)
   TURBO    =      0    0=normal 1=particle mesh
   IRESTART =      0    0=no restart 2=restart with 2 vectors
   NREBOOT  =      0    no. of reboots
   NMIN     =      0    reboot dimension
   EREF     =   0.00    reference energy to select bands
   IMIX   =      4    mixing-type and parameters
     AMIX     =   0.40;   BMIX     =  1.00
     AMIX_MAG =   1.60;   BMIX_MAG =  1.00
     AMIN     =   0.10
     WC   =   100.;   INIMIX=   1;  MIXPRE=   1;  MAXMIX= -45

 Intra band minimization:
   WEIMIN = 0.0010     energy-eigenvalue tresh-hold
   EBREAK =  0.30E-07  absolut break condition
   DEPER  =   0.30     relativ break condition  

   TIME   =   0.40     timestep for ELM

  volume/ion in A,a.u.               =      13.22        89.22
  Fermi-wavevector in a.u.,A,eV,Ry     =   1.384702  2.616708 26.087809  1.917400
  Thomas-Fermi vector in A             =   2.509181

 Write flags
   LWAVE        =      F    write WAVECAR
   LDOWNSAMPLE  =      F    k-point downsampling of WAVECAR
   LCHARG       =      T    write CHGCAR
   LVTOT        =      F    write LOCPOT, total local potential
   LVHAR        =      F    write LOCPOT, Hartree potential only
   LELF         =      F    write electronic localiz. function (ELF)
   LORBIT       =     11    0 simple, 1 ext, 2 COOP (PROOUT), +10 PAW based schemes


 Dipole corrections
   LMONO  =      F    monopole corrections only (constant potential shift)
   LDIPOL =      F    correct potential (dipole corrections)
   IDIPOL =      0    1-x, 2-y, 3-z, 4-all directions 
   EPSILON=  1.0000000 bulk dielectric constant

 Exchange correlation treatment:
   GGA     =    --    GGA type
   LEXCH   =     8    internal setting for exchange type
   VOSKOWN=      0    Vosko Wilk Nusair interpolation
   LHFCALC =     F    Hartree Fock is set to
   LHFONE  =     F    Hartree Fock one center treatment
   AEXX    =    0.0000 exact exchange contribution

 Linear response parameters
   LEPSILON=     F    determine dielectric tensor
   LRPA    =     F    only Hartree local field effects (RPA)
   LNABLA  =     F    use nabla operator in PAW spheres
   LVEL    =     F    velocity operator in full k-point grid
   LINTERFAST=   F  fast interpolation
   KINTER  =     0    interpolate to denser k-point grid
   CSHIFT  =0.1000    complex shift for real part using Kramers Kronig
   OMEGAMAX=  -1.0    maximum frequency
   DEG_THRESHOLD= 0.2000000E-02 threshold for treating states as degnerate
   RTIME   =   -0.100 relaxation time in fs
  (WPLASMAI=    0.000 imaginary part of plasma frequency in eV, 0.658/RTIME)
   DFIELD  = 0.0000000 0.0000000 0.0000000 field for delta impulse in time

 Orbital magnetization related:
   ORBITALMAG=     F  switch on orbital magnetization
   LCHIMAG   =     F  perturbation theory with respect to B field
   DQ        =  0.001000  dq finite difference perturbation B field
   LLRAUG    =     F  two centre corrections for induced B field



--------------------------------------------------------------------------------------------------------


 conjugate gradient relaxation of ions
 charge density and potential will be updated during run
 spin polarized calculation
 RMM-DIIS sequential band-by-band and
  variant of blocked Davidson during initial phase
 perform sub-space diagonalisation
    before iterative eigenvector-optimisation
 modified Broyden-mixing scheme, WC =      100.0
 initial mixing is a Kerker type mixing with AMIX =  0.4000 and BMIX =      1.0000
 Hartree-type preconditioning will be used
 using additional bands           20
 real space projection scheme for non local part
 use partial core corrections
 calculate Harris-corrections to forces   (improved forces if not selfconsistent)
 use gradient corrections 
 use of overlap-Matrix (Vanderbilt PP)
 Gauss-broadening in eV      SIGMA  =   0.02


--------------------------------------------------------------------------------------------------------


  energy-cutoff  :      550.00
  volume of cell :      211.53
      direct lattice vectors                 reciprocal lattice vectors
     5.958292296  0.000000000  0.000000000     0.167833324  0.000000000  0.000000000
     0.000000000  5.958292296  0.000000000     0.000000000  0.167833324  0.000000000
     0.000000000  0.000000000  5.958292296     0.000000000  0.000000000  0.167833324

  length of vectors
     5.958292296  5.958292296  5.958292296     0.167833324  0.167833324  0.167833324



 k-points in units of 2pi/SCALE and weight: k-points                                
   0.00000000  0.00000000  0.00000000       0.003
   0.13810285  0.00000000  0.00000000       0.012
   0.27620570  0.00000000  0.00000000       0.012
   0.41430855  0.00000000  0.00000000       0.012
   0.13810285  0.13810285  0.00000000       0.012
   0.27620570  0.13810285  0.00000000       0.023
   0.41430855  0.13810285  0.00000000       0.023
   0.27620570  0.27620570  0.00000000       0.012
   0.41430855  0.27620570  0.00000000       0.023
   0.41430855  0.41430855  0.00000000       0.012
   0.00000000  0.00000000  0.13810285       0.006
   0.13810285  0.00000000  0.13810285       0.023
   0.27620570  0.00000000  0.13810285       0.023
   0.41430855  0.00000000  0.13810285       0.023
   0.13810285  0.13810285  0.13810285       0.023
   0.27620570  0.13810285  0.13810285       0.047
   0.41430855  0.13810285  0.13810285       0.047
   0.27620570  0.27620570  0.13810285       0.023
   0.41430855  0.27620570  0.13810285       0.047
   0.41430855  0.41430855  0.13810285       0.023
   0.00000000  0.00000000  0.27620570       0.006
   0.13810285  0.00000000  0.27620570       0.023
   0.27620570  0.00000000  0.27620570       0.023
   0.41430855  0.00000000  0.27620570       0.023
   0.13810285  0.13810285  0.27620570       0.023
   0.27620570  0.13810285  0.27620570       0.047
   0.41430855  0.13810285  0.27620570       0.047
   0.27620570  0.27620570  0.27620570       0.023
   0.41430855  0.27620570  0.27620570       0.047
   0.41430855  0.41430855  0.27620570       0.023
   0.00000000  0.00000000  0.41430855       0.006
   0.13810285  0.00000000  0.41430855       0.023
   0.27620570  0.00000000  0.41430855       0.023
   0.41430855  0.00000000  0.41430855       0.023
   0.13810285  0.13810285  0.41430855       0.023
   0.27620570  0.13810285  0.41430855       0.047
   0.41430855  0.13810285  0.41430855       0.047
   0.27620570  0.27620570  0.41430855       0.023
   0.41430855  0.27620570  0.41430855       0.047
   0.41430855  0.41430855  0.41430855       0.023

 k-points in reciprocal lattice and weights: k-points                                
   0.00000000  0.00000000  0.00000000       0.003
   0.14285714  0.00000000  0.00000000       0.012
   0.28571429  0.00000000  0.00000000       0.012
   0.42857143  0.00000000  0.00000000       0.012
   0.14285714  0.14285714  0.00000000       0.012
   0.28571429  0.14285714  0.00000000       0.023
   0.42857143  0.14285714  0.00000000       0.023
   0.28571429  0.28571429  0.00000000       0.012
   0.42857143  0.28571429  0.00000000       0.023
   0.42857143  0.42857143  0.00000000       0.012
   0.00000000  0.00000000  0.14285714       0.006
   0.14285714  0.00000000  0.14285714       0.023
   0.28571429  0.00000000  0.14285714       0.023
   0.42857143  0.00000000  0.14285714       0.023
   0.14285714  0.14285714  0.14285714       0.023
   0.28571429  0.14285714  0.14285714       0.047
   0.42857143  0.14285714  0.14285714       0.047
   0.28571429  0.28571429  0.14285714       0.023
   0.42857143  0.28571429  0.14285714       0.047
   0.42857143  0.42857143  0.14285714       0.023
   0.00000000  0.00000000  0.28571429       0.006
   0.14285714  0.00000000  0.28571429       0.023
   0.28571429  0.00000000  0.28571429       0.023
   0.42857143  0.00000000  0.28571429       0.023
   0.14285714  0.14285714  0.28571429       0.023
   0.28571429  0.14285714  0.28571429       0.047
   0.42857143  0.14285714  0.28571429       0.047
   0.28571429  0.28571429  0.28571429       0.023
   0.42857143  0.28571429  0.28571429       0.047
   0.42857143  0.42857143  0.28571429       0.023
   0.00000000  0.00000000  0.42857143       0.006
   0.14285714  0.00000000  0.42857143       0.023
   0.28571429  0.00000000  0.42857143       0.023
   0.42857143  0.00000000  0.42857143       0.023
   0.14285714  0.14285714  0.42857143       0.023
   0.28571429  0.14285714  0.42857143       0.047
   0.42857143  0.14285714  0.42857143       0.047
   0.28571429  0.28571429  0.42857143       0.023
   0.42857143  0.28571429  0.42857143       0.047
   0.42857143  0.42857143  0.42857143       0.023

 position of ions in fractional coordinates (direct lattice) 
   0.24652239  0.24652239  0.25389750
   0.75347761  0.24652239  0.25389750
   0.24652239  0.75347761  0.25389750
   0.75347761  0.75347761  0.25389750
   0.24652239  0.24652239  0.74610250
   0.75347761  0.24652239  0.74610250
   0.24652239  0.75347761  0.74610250
   0.75347761  0.75347761  0.74610250
   0.50000000  0.00000000  0.00000000
   0.50000000  0.50000000  0.00000000
   0.00000000  0.50000000  0.00000000
   0.00000000  0.00000000  0.50000000
   0.50000000  0.00000000  0.50000000
   0.00000000  0.50000000  0.50000000
   0.00000000  0.00000000  0.00000000
   0.50000000  0.50000000  0.50000000

 position of ions in cartesian coordinates  (Angst):
   1.46885246  1.46885246  1.51279549
   4.48943983  1.46885246  1.51279549
   1.46885246  4.48943983  1.51279549
   4.48943983  4.48943983  1.51279549
   1.46885246  1.46885246  4.44549681
   4.48943983  1.46885246  4.44549681
   1.46885246  4.48943983  4.44549681
   4.48943983  4.48943983  4.44549681
   2.97914615  0.00000000  0.00000000
   2.97914615  2.97914615  0.00000000
   0.00000000  2.97914615  0.00000000
   0.00000000  0.00000000  2.97914615
   2.97914615  0.00000000  2.97914615
   0.00000000  2.97914615  2.97914615
   0.00000000  0.00000000  0.00000000
   2.97914615  2.97914615  2.97914615



--------------------------------------------------------------------------------------------------------


 k-point  1 :   0.0000 0.0000 0.0000  plane waves:    6187
 k-point  2 :   0.1429 0.0000 0.0000  plane waves:    6195
 k-point  3 :   0.2857 0.0000 0.0000  plane waves:    6195
 k-point  4 :   0.4286 0.0000 0.0000  plane waves:    6202
 k-point  5 :   0.1429 0.1429 0.0000  plane waves:    6204
 k-point  6 :   0.2857 0.1429 0.0000  plane waves:    6211
 k-point  7 :   0.4286 0.1429 0.0000  plane waves:    6199
 k-point  8 :   0.2857 0.2857 0.0000  plane waves:    6202
 k-point  9 :   0.4286 0.2857 0.0000  plane waves:    6183
 k-point 10 :   0.4286 0.4286 0.0000  plane waves:    6200
 k-point 11 :   0.0000 0.0000 0.1429  plane waves:    6195
 k-point 12 :   0.1429 0.0000 0.1429  plane waves:    6204
 k-point 13 :   0.2857 0.0000 0.1429  plane waves:    6211
 k-point 14 :   0.4286 0.0000 0.1429  plane waves:    6199
 k-point 15 :   0.1429 0.1429 0.1429  plane waves:    6193
 k-point 16 :   0.2857 0.1429 0.1429  plane waves:    6196
 k-point 17 :   0.4286 0.1429 0.1429  plane waves:    6208
 k-point 18 :   0.2857 0.2857 0.1429  plane waves:    6190
 k-point 19 :   0.4286 0.2857 0.1429  plane waves:    6194
 k-point 20 :   0.4286 0.4286 0.1429  plane waves:    6201
 k-point 21 :   0.0000 0.0000 0.2857  plane waves:    6195
 k-point 22 :   0.1429 0.0000 0.2857  plane waves:    6211
 k-point 23 :   0.2857 0.0000 0.2857  plane waves:    6202
 k-point 24 :   0.4286 0.0000 0.2857  plane waves:    6183
 k-point 25 :   0.1429 0.1429 0.2857  plane waves:    6196
 k-point 26 :   0.2857 0.1429 0.2857  plane waves:    6190
 k-point 27 :   0.4286 0.1429 0.2857  plane waves:    6194
 k-point 28 :   0.2857 0.2857 0.2857  plane waves:    6202
 k-point 29 :   0.4286 0.2857 0.2857  plane waves:    6196
 k-point 30 :   0.4286 0.4286 0.2857  plane waves:    6178
 k-point 31 :   0.0000 0.0000 0.4286  plane waves:    6202
 k-point 32 :   0.1429 0.0000 0.4286  plane waves:    6199
 k-point 33 :   0.2857 0.0000 0.4286  plane waves:    6183
 k-point 34 :   0.4286 0.0000 0.4286  plane waves:    6200
 k-point 35 :   0.1429 0.1429 0.4286  plane waves:    6208
 k-point 36 :   0.2857 0.1429 0.4286  plane waves:    6194
 k-point 37 :   0.4286 0.1429 0.4286  plane waves:    6201
 k-point 38 :   0.2857 0.2857 0.4286  plane waves:    6196
 k-point 39 :   0.4286 0.2857 0.4286  plane waves:    6178
 k-point 40 :   0.4286 0.4286 0.4286  plane waves:    6143

 maximum and minimum number of plane-waves per node :      6211     6143

 maximum number of plane-waves:      6211
 maximum index in each direction: 
   IXMAX=   11   IYMAX=   11   IZMAX=   11
   IXMIN=  -11   IYMIN=  -11   IZMIN=  -11


 serial   3D FFT for wavefunctions
 parallel 3D FFT for charge:
    minimum data exchange during FFTs selected (reduces bandwidth)


 total amount of memory used by VASP MPI-rank0   103426. kBytes
=======================================================================

   base      :      30000. kBytes
   nonlr-proj:       6812. kBytes
   fftplans  :       1269. kBytes
   grid      :       6573. kBytes
   one-center:        497. kBytes
   wavefun   :      58275. kBytes

     INWAV:  cpu time    0.0000: real time    0.0001
 Broyden mixing: mesh for mixing (old mesh)
   NGX = 23   NGY = 23   NGZ = 23
  (NGX  = 72   NGY  = 72   NGZ  = 72)
  gives a total of  12167 points

 initial charge density was supplied:
 charge density of overlapping atoms calculated
 number of electron     128.0000000 magnetization       8.8000000
 keeping initial charge density in first step


--------------------------------------------------------------------------------------------------------


 Maximum index for non-local projection operator         3887
 Maximum index for augmentation-charges         2111 (set IRDMAX)


--------------------------------------------------------------------------------------------------------


 First call to EWALD:  gamma=   0.297
 Maximum number of real-space cells 3x 3x 3
 Maximum number of reciprocal cells 3x 3x 3

    FEWALD:  cpu time    0.0021: real time    0.0021


--------------------------------------- Iteration      1(   1)  ---------------------------------------


    POTLOK:  cpu time    0.1004: real time    0.1070
    SETDIJ:  cpu time    0.0356: real time    0.0356
     EDDAV:  cpu time   23.9759: real time   24.0199
       DOS:  cpu time    0.0037: real time    0.0038
    --------------------------------------------
      LOOP:  cpu time   24.1156: real time   24.1664

 eigenvalue-minimisations  : 13440
 total energy-change (2. order) : 0.1070260E+04  (-0.5422275E+04)
 number of electron     128.0000000 magnetization       8.8000000
 augmentation part      128.0000000 magnetization       8.8000000

 Free energy of the ion-electron system (eV)
  ---------------------------------------------------
  alpha Z        PSCENC =       531.96363298
  Ewald energy   TEWEN  =     -9401.69593424
  -Hartree energ DENC   =     -3027.92414850
  -exchange      EXHF   =         0.00000000
  -V(xc)+E(xc)   XCENC  =        77.99929109
  PAW double counting   =     10320.96726947   -10647.99417394
  entropy T*S    EENTRO =        -0.00192021
  eigenvalues    EBANDS =      1987.48447149
  atomic energy  EATOM  =     11229.46195210
  Solvation  Ediel_sol  =         0.00000000
  ---------------------------------------------------
  free energy    TOTEN  =      1070.26044024 eV

  energy without entropy =     1070.26236045  energy(sigma->0) =     1070.26140034


--------------------------------------------------------------------------------------------------------




--------------------------------------- Iteration      1(   2)  ---------------------------------------


     EDDAV:  cpu time   24.8290: real time   24.8594
       DOS:  cpu time    0.0037: real time    0.0037
    --------------------------------------------
      LOOP:  cpu time   24.8326: real time   24.8631

 eigenvalue-minimisations  : 13440
 total energy-change (2. order) :-0.1068501E+04  (-0.1035621E+04)
 number of electron     128.0000000 magnetization       8.8000000
 augmentation part      128.0000000 magnetization       8.8000000

 Free energy of the ion-electron system (eV)
  ---------------------------------------------------
  alpha Z        PSCENC =       531.96363298
  Ewald energy   TEWEN  =     -9401.69593424
  -Hartree energ DENC   =     -3027.92414850
  -exchange      EXHF   =         0.00000000
  -V(xc)+E(xc)   XCENC  =        77.99929109
  PAW double counting   =     10320.96726947   -10647.99417394
  entropy T*S    EENTRO =        -0.00293773
  eigenvalues    EBANDS =       918.98464870
  atomic energy  EATOM  =     11229.46195210
  Solvation  Ediel_sol  =         0.00000000
  ---------------------------------------------------
  free energy    TOTEN  =         1.75959993 eV

  energy without entropy =        1.76253766  energy(sigma->0) =        1.76106879


--------------------------------------------------------------------------------------------------------




--------------------------------------- Iteration      1(   3)  ---------------------------------------


     EDDAV:  cpu time   26.8153: real time   26.8472
       DOS:  cpu time    0.0037: real time    0.0038
    --------------------------------------------
      LOOP:  cpu time   26.8191: real time   26.8509

 eigenvalue-minimisations  : 15204
 total energy-change (2. order) :-0.1117822E+03  (-0.1002524E+03)
 number of electron     128.0000000 magnetization       8.8000000
 augmentation part      128.0000000 magnetization       8.8000000

 Free energy of the ion-electron system (eV)
  ---------------------------------------------------
  alpha Z        PSCENC =       531.96363298
  Ewald energy   TEWEN  =     -9401.69593424
  -Hartree energ DENC   =     -3027.92414850
  -exchange      EXHF   =         0.00000000
  -V(xc)+E(xc)   XCENC  =        77.99929109
  PAW double counting   =     10320.96726947   -10647.99417394
  entropy T*S    EENTRO =        -0.00299828
  eigenvalues    EBANDS =       807.20248055
  atomic energy  EATOM  =     11229.46195210
  Solvation  Ediel_sol  =         0.00000000
  ---------------------------------------------------
  free energy    TOTEN  =      -110.02262877 eV

  energy without entropy =     -110.01963049  energy(sigma->0) =     -110.02112963


--------------------------------------------------------------------------------------------------------




--------------------------------------- Iteration      1(   4)  ---------------------------------------


     EDDAV:  cpu time   33.0560: real time   33.1181
       DOS:  cpu time    0.0037: real time    0.0037
    --------------------------------------------
      LOOP:  cpu time   33.0597: real time   33.1218

 eigenvalue-minimisations  : 20004
 total energy-change (2. order) :-0.6644116E+01  (-0.6299394E+01)
 number of electron     128.0000000 magnetization       8.8000000
 augmentation part      128.0000000 magnetization       8.8000000

 Free energy of the ion-electron system (eV)
  ---------------------------------------------------
  alpha Z        PSCENC =       531.96363298
  Ewald energy   TEWEN  =     -9401.69593424
  -Hartree energ DENC   =     -3027.92414850
  -exchange      EXHF   =         0.00000000
  -V(xc)+E(xc)   XCENC  =        77.99929109
  PAW double counting   =     10320.96726947   -10647.99417394
  entropy T*S    EENTRO =        -0.00276480
  eigenvalues    EBANDS =       800.55813135
  atomic energy  EATOM  =     11229.46195210
  Solvation  Ediel_sol  =         0.00000000
  ---------------------------------------------------
  free energy    TOTEN  =      -116.66674449 eV

  energy without entropy =     -116.66397969  energy(sigma->0) =     -116.66536209


--------------------------------------------------------------------------------------------------------




--------------------------------------- Iteration      1(   5)  ---------------------------------------


     EDDAV:  cpu time   32.7923: real time   32.8540
       DOS:  cpu time    0.0035: real time    0.0035
    CHARGE:  cpu time    0.6617: real time    0.6624
    MIXING:  cpu time    0.0016: real time    0.0016
    --------------------------------------------
      LOOP:  cpu time   33.4591: real time   33.5216

 eigenvalue-minimisations  : 19920
 total energy-change (2. order) :-0.2163329E+00  (-0.2153870E+00)
 number of electron     128.0000176 magnetization       7.3815937
 augmentation part       60.5643634 magnetization       4.7409801

 Broyden mixing:
  rms(total) = 0.34246E+01    rms(broyden)= 0.34245E+01
  rms(prec ) = 0.53593E+01
  weight for this iteration     100.00

 Free energy of the ion-electron system (eV)
  ---------------------------------------------------
  alpha Z        PSCENC =       531.96363298
  Ewald energy   TEWEN  =     -9401.69593424
  -Hartree energ DENC   =     -3027.92414850
  -exchange      EXHF   =         0.00000000
  -V(xc)+E(xc)   XCENC  =        77.99929109
  PAW double counting   =     10320.96726947   -10647.99417394
  entropy T*S    EENTRO =        -0.00283541
  eigenvalues    EBANDS =       800.34186909
  atomic energy  EATOM  =     11229.46195210
  Solvation  Ediel_sol  =         0.00000000
  ---------------------------------------------------
  free energy    TOTEN  =      -116.88307737 eV

  energy without entropy =     -116.88024195  energy(sigma->0) =     -116.88165966


--------------------------------------------------------------------------------------------------------




--------------------------------------- Iteration      1(   6)  ---------------------------------------


    POTLOK:  cpu time    0.1050: real time    0.1116
    SETDIJ:  cpu time    0.0389: real time    0.0389
    EDDIAG:  cpu time    3.3654: real time    3.3688
  RMM-DIIS:  cpu time   10.6050: real time   10.6177
    ORTHCH:  cpu time    0.6418: real time    0.6424
       DOS:  cpu time    0.0040: real time    0.0040
    CHARGE:  cpu time    0.6838: real time    0.6842
    MIXING:  cpu time    0.0017: real time    0.0017
    --------------------------------------------
      LOOP:  cpu time   15.4455: real time   15.4692

 eigenvalue-minimisations  : 13440
 total energy-change (2. order) : 0.5601068E+01  (-0.1758879E+02)
 number of electron     128.0000236 magnetization       6.7619722
 augmentation part       69.7163355 magnetization       5.7890624

 Broyden mixing:
  rms(total) = 0.51534E+01    rms(broyden)= 0.51533E+01
  rms(prec ) = 0.72645E+01
  weight for this iteration     100.00

 eigenvalues of (default mixing * dielectric matrix)
  average eigenvalue GAMMA=   0.1987
  0.1987

 Free energy of the ion-electron system (eV)
  ---------------------------------------------------
  alpha Z        PSCENC =       531.96363298
  Ewald energy   TEWEN  =     -9401.69593424
  -Hartree energ DENC   =     -2793.30483292
  -exchange      EXHF   =         0.00000000
  -V(xc)+E(xc)   XCENC  =        66.16319671
  PAW double counting   =     11121.63263556   -11414.62597488
  entropy T*S    EENTRO =        -0.00520422
  eigenvalues    EBANDS =       549.12851961
  atomic energy  EATOM  =     11229.46195210
  Solvation  Ediel_sol  =         0.00000000
  ---------------------------------------------------
  free energy    TOTEN  =      -111.28200930 eV

  energy without entropy =     -111.27680508  energy(sigma->0) =     -111.27940719


--------------------------------------------------------------------------------------------------------




--------------------------------------- Iteration      1(   7)  ---------------------------------------


    POTLOK:  cpu time    0.0992: real time    0.0994
    SETDIJ:  cpu time    0.0367: real time    0.0367
    EDDIAG:  cpu time    3.3251: real time    3.3290
  RMM-DIIS:  cpu time   10.5347: real time   10.5460
    ORTHCH:  cpu time    0.6405: real time    0.6412
       DOS:  cpu time    0.0035: real time    0.0035
    CHARGE:  cpu time    0.6730: real time    0.6735
    MIXING:  cpu time    0.0017: real time    0.0017
    --------------------------------------------
      LOOP:  cpu time   15.3145: real time   15.3311

 eigenvalue-minimisations  : 13473
 total energy-change (2. order) :-0.2853651E+01  (-0.2700038E+01)
 number of electron     128.0000191 magnetization       6.1419630
 augmentation part       70.3969739 magnetization       4.1334005

 Broyden mixing:
  rms(total) = 0.41757E+01    rms(broyden)= 0.41755E+01
  rms(prec ) = 0.79064E+01
  weight for this iteration     100.00

 eigenvalues of (default mixing * dielectric matrix)
  average eigenvalue GAMMA=   0.3452
  0.3452  0.3452

 Free energy of the ion-electron system (eV)
  ---------------------------------------------------
  alpha Z        PSCENC =       531.96363298
  Ewald energy   TEWEN  =     -9401.69593424
  -Hartree energ DENC   =     -2777.52658954
  -exchange      EXHF   =         0.00000000
  -V(xc)+E(xc)   XCENC  =        66.42075963
  PAW double counting   =     11376.34655474   -11673.23823850
  entropy T*S    EENTRO =        -0.00277962
  eigenvalues    EBANDS =       534.13498201
  atomic energy  EATOM  =     11229.46195210
  Solvation  Ediel_sol  =         0.00000000
  ---------------------------------------------------
  free energy    TOTEN  =      -114.13566043 eV

  energy without entropy =     -114.13288081  energy(sigma->0) =     -114.13427062


--------------------------------------------------------------------------------------------------------




--------------------------------------- Iteration      1(   8)  ---------------------------------------


    POTLOK:  cpu time    0.0984: real time    0.0986
    SETDIJ:  cpu time    0.0365: real time    0.0366
    EDDIAG:  cpu time    3.3439: real time    3.3471
  RMM-DIIS:  cpu time   10.6063: real time   10.6177
    ORTHCH:  cpu time    0.6386: real time    0.6391
       DOS:  cpu time    0.0036: real time    0.0037
    CHARGE:  cpu time    0.6816: real time    0.6821
    MIXING:  cpu time    0.0018: real time    0.0018
    --------------------------------------------
      LOOP:  cpu time   15.4108: real time   15.4266

 eigenvalue-minimisations  : 13440
 total energy-change (2. order) : 0.7271458E+01  (-0.2536906E+01)
 number of electron     128.0000227 magnetization       5.7021100
 augmentation part       69.4505320 magnetization       4.5018865

 Broyden mixing:
  rms(total) = 0.29171E+01    rms(broyden)= 0.29170E+01
  rms(prec ) = 0.57377E+01
  weight for this iteration     100.00

 eigenvalues of (default mixing * dielectric matrix)
  average eigenvalue GAMMA=   0.4001
  0.5224  0.5224  0.1556

 Free energy of the ion-electron system (eV)
  ---------------------------------------------------
  alpha Z        PSCENC =       531.96363298
  Ewald energy   TEWEN  =     -9401.69593424
  -Hartree energ DENC   =     -2821.87949397
  -exchange      EXHF   =         0.00000000
  -V(xc)+E(xc)   XCENC  =        69.47702171
  PAW double counting   =     11715.29818034   -12033.25299556
  entropy T*S    EENTRO =        -0.00182977
  eigenvalues    EBANDS =       603.76526426
  atomic energy  EATOM  =     11229.46195210
  Solvation  Ediel_sol  =         0.00000000
  ---------------------------------------------------
  free energy    TOTEN  =      -106.86420214 eV

  energy without entropy =     -106.86237237  energy(sigma->0) =     -106.86328725


--------------------------------------------------------------------------------------------------------




--------------------------------------- Iteration      1(   9)  ---------------------------------------


    POTLOK:  cpu time    0.0988: real time    0.0990
    SETDIJ:  cpu time    0.0367: real time    0.0368
    EDDIAG:  cpu time    3.3547: real time    3.3588
  RMM-DIIS:  cpu time   10.6686: real time   10.6800
    ORTHCH:  cpu time    0.6435: real time    0.6441
       DOS:  cpu time    0.0038: real time    0.0038
    CHARGE:  cpu time    0.6860: real time    0.6865
    MIXING:  cpu time    0.0019: real time    0.0019
    --------------------------------------------
      LOOP:  cpu time   15.4939: real time   15.5108

 eigenvalue-minimisations  : 13446
 total energy-change (2. order) : 0.3259056E+01  (-0.9870718E+00)
 number of electron     128.0000199 magnetization       5.8266426
 augmentation part       66.6983988 magnetization       4.0132376

 Broyden mixing:
  rms(total) = 0.20752E+01    rms(broyden)= 0.20750E+01
  rms(prec ) = 0.36434E+01
  weight for this iteration     100.00

 eigenvalues of (default mixing * dielectric matrix)
  average eigenvalue GAMMA=   0.4542
  0.9316  0.5165  0.2395  0.1294

 Free energy of the ion-electron system (eV)
  ---------------------------------------------------
  alpha Z        PSCENC =       531.96363298
  Ewald energy   TEWEN  =     -9401.69593424
  -Hartree energ DENC   =     -2850.86393712
  -exchange      EXHF   =         0.00000000
  -V(xc)+E(xc)   XCENC  =        71.58754417
  PAW double counting   =     11943.16138069   -12273.24420893
  entropy T*S    EENTRO =        -0.00609700
  eigenvalues    EBANDS =       646.03052135
  atomic energy  EATOM  =     11229.46195210
  Solvation  Ediel_sol  =         0.00000000
  ---------------------------------------------------
  free energy    TOTEN  =      -103.60514600 eV

  energy without entropy =     -103.59904899  energy(sigma->0) =     -103.60209750


--------------------------------------------------------------------------------------------------------




--------------------------------------- Iteration      1(  10)  ---------------------------------------


    POTLOK:  cpu time    0.1049: real time    0.1057
    SETDIJ:  cpu time    0.0388: real time    0.0388
    EDDIAG:  cpu time    3.4007: real time    3.4040
  RMM-DIIS:  cpu time   10.6327: real time   10.6459
    ORTHCH:  cpu time    0.6384: real time    0.6390
       DOS:  cpu time    0.0038: real time    0.0038
    CHARGE:  cpu time    0.6843: real time    0.6848
    MIXING:  cpu time    0.0020: real time    0.0020
    --------------------------------------------
      LOOP:  cpu time   15.5055: real time   15.5240

 eigenvalue-minimisations  : 13509
 total energy-change (2. order) : 0.1253486E+01  (-0.2127946E+00)
 number of electron     128.0000204 magnetization       6.3892342
 augmentation part       67.3767930 magnetization       4.0816170

 Broyden mixing:
  rms(total) = 0.12101E+01    rms(broyden)= 0.12101E+01
  rms(prec ) = 0.16688E+01
  weight for this iteration     100.00

 eigenvalues of (default mixing * dielectric matrix)
  average eigenvalue GAMMA=   0.4311
  0.9893  0.4261  0.4261  0.1877  0.1265

 Free energy of the ion-electron system (eV)
  ---------------------------------------------------
  alpha Z        PSCENC =       531.96363298
  Ewald energy   TEWEN  =     -9401.69593424
  -Hartree energ DENC   =     -2838.18391547
  -exchange      EXHF   =         0.00000000
  -V(xc)+E(xc)   XCENC  =        71.37881667
  PAW double counting   =     12224.69586634   -12558.05686602
  entropy T*S    EENTRO =        -0.00295293
  eigenvalues    EBANDS =       638.08774054
  atomic energy  EATOM  =     11229.46195210
  Solvation  Ediel_sol  =         0.00000000
  ---------------------------------------------------
  free energy    TOTEN  =      -102.35166003 eV

  energy without entropy =     -102.34870710  energy(sigma->0) =     -102.35018356


--------------------------------------------------------------------------------------------------------




--------------------------------------- Iteration      1(  11)  ---------------------------------------


    POTLOK:  cpu time    0.0985: real time    0.0987
    SETDIJ:  cpu time    0.0366: real time    0.0366
    EDDIAG:  cpu time    3.3653: real time    3.3692
  RMM-DIIS:  cpu time   10.6319: real time   10.6434
    ORTHCH:  cpu time    0.6409: real time    0.6416
       DOS:  cpu time    0.0038: real time    0.0038
    CHARGE:  cpu time    0.6741: real time    0.6746
    MIXING:  cpu time    0.0021: real time    0.0021
    --------------------------------------------
      LOOP:  cpu time   15.4532: real time   15.4699

 eigenvalue-minimisations  : 13450
 total energy-change (2. order) : 0.7601857E-01  (-0.5599440E-01)
 number of electron     128.0000203 magnetization       7.0014033
 augmentation part       67.6059971 magnetization       4.7031749

 Broyden mixing:
  rms(total) = 0.84001E+00    rms(broyden)= 0.84001E+00
  rms(prec ) = 0.91762E+00
  weight for this iteration     100.00

 eigenvalues of (default mixing * dielectric matrix)
  average eigenvalue GAMMA=   0.4142
  0.9477  0.4133  0.4133  0.3952  0.1893  0.1264

 Free energy of the ion-electron system (eV)
  ---------------------------------------------------
  alpha Z        PSCENC =       531.96363298
  Ewald energy   TEWEN  =     -9401.69593424
  -Hartree energ DENC   =     -2832.26724632
  -exchange      EXHF   =         0.00000000
  -V(xc)+E(xc)   XCENC  =        71.95072119
  PAW double counting   =     12350.15475493   -12684.86509275
  entropy T*S    EENTRO =        -0.00281455
  eigenvalues    EBANDS =       633.02438520
  atomic energy  EATOM  =     11229.46195210
  Solvation  Ediel_sol  =         0.00000000
  ---------------------------------------------------
  free energy    TOTEN  =      -102.27564146 eV

  energy without entropy =     -102.27282691  energy(sigma->0) =     -102.27423419


--------------------------------------------------------------------------------------------------------




--------------------------------------- Iteration      1(  12)  ---------------------------------------


    POTLOK:  cpu time    0.0986: real time    0.0988
    SETDIJ:  cpu time    0.0367: real time    0.0368
    EDDIAG:  cpu time    3.3691: real time    3.3726
  RMM-DIIS:  cpu time   10.6239: real time   10.6354
    ORTHCH:  cpu time    0.6425: real time    0.6431
       DOS:  cpu time    0.0037: real time    0.0037
    CHARGE:  cpu time    0.6802: real time    0.6813
    MIXING:  cpu time    0.0022: real time    0.0022
    --------------------------------------------
      LOOP:  cpu time   15.4570: real time   15.4738

 eigenvalue-minimisations  : 13464
 total energy-change (2. order) :-0.2329984E+00  (-0.2384672E-01)
 number of electron     128.0000205 magnetization       9.2481284
 augmentation part       67.4217527 magnetization       6.9080305

 Broyden mixing:
  rms(total) = 0.71845E+00    rms(broyden)= 0.71844E+00
  rms(prec ) = 0.81269E+00
  weight for this iteration     100.00

 eigenvalues of (default mixing * dielectric matrix)
  average eigenvalue GAMMA=   0.6117
  1.0457  1.0457  0.9823  0.6310  0.1260  0.1918  0.2598

 Free energy of the ion-electron system (eV)
  ---------------------------------------------------
  alpha Z        PSCENC =       531.96363298
  Ewald energy   TEWEN  =     -9401.69593424
  -Hartree energ DENC   =     -2833.42836122
  -exchange      EXHF   =         0.00000000
  -V(xc)+E(xc)   XCENC  =        72.98054490
  PAW double counting   =     12439.29496361   -12776.35266306
  entropy T*S    EENTRO =        -0.00249870
  eigenvalues    EBANDS =       635.26972381
  atomic energy  EATOM  =     11229.46195210
  Solvation  Ediel_sol  =         0.00000000
  ---------------------------------------------------
  free energy    TOTEN  =      -102.50863983 eV

  energy without entropy =     -102.50614113  energy(sigma->0) =     -102.50739048


--------------------------------------------------------------------------------------------------------




--------------------------------------- Iteration      1(  13)  ---------------------------------------


    POTLOK:  cpu time    0.0985: real time    0.0987
    SETDIJ:  cpu time    0.0365: real time    0.0365
    EDDIAG:  cpu time    3.3787: real time    3.3821
  RMM-DIIS:  cpu time   10.8273: real time   10.8392
    ORTHCH:  cpu time    0.6410: real time    0.6416
       DOS:  cpu time    0.0036: real time    0.0036
    CHARGE:  cpu time    0.6736: real time    0.6741
    MIXING:  cpu time    0.0025: real time    0.0025
    --------------------------------------------
      LOOP:  cpu time   15.6617: real time   15.6784

 eigenvalue-minimisations  : 13735
 total energy-change (2. order) :-0.4086282E+00  (-0.6011588E-01)
 number of electron     128.0000206 magnetization       9.5912863
 augmentation part       67.8558111 magnetization       7.2733116

 Broyden mixing:
  rms(total) = 0.33067E+00    rms(broyden)= 0.33066E+00
  rms(prec ) = 0.46960E+00
  weight for this iteration     100.00

 eigenvalues of (default mixing * dielectric matrix)
  average eigenvalue GAMMA=   0.6337
  1.5772  0.9067  0.9067  0.5555  0.5555  0.1260  0.1928  0.2495

 Free energy of the ion-electron system (eV)
  ---------------------------------------------------
  alpha Z        PSCENC =       531.96363298
  Ewald energy   TEWEN  =     -9401.69593424
  -Hartree energ DENC   =     -2823.25531113
  -exchange      EXHF   =         0.00000000
  -V(xc)+E(xc)   XCENC  =        75.62147277
  PAW double counting   =     12748.43670267   -13089.81960970
  entropy T*S    EENTRO =        -0.00238417
  eigenvalues    EBANDS =       626.37221071
  atomic energy  EATOM  =     11229.46195210
  Solvation  Ediel_sol  =         0.00000000
  ---------------------------------------------------
  free energy    TOTEN  =      -102.91726800 eV

  energy without entropy =     -102.91488383  energy(sigma->0) =     -102.91607592


--------------------------------------------------------------------------------------------------------




--------------------------------------- Iteration      1(  14)  ---------------------------------------


    POTLOK:  cpu time    0.1103: real time    0.1110
    SETDIJ:  cpu time    0.0387: real time    0.0387
    EDDIAG:  cpu time    3.4194: real time    3.4295
  RMM-DIIS:  cpu time   11.0720: real time   11.1097
    ORTHCH:  cpu time    0.6379: real time    0.6411
       DOS:  cpu time    0.0035: real time    0.0037
    CHARGE:  cpu time    0.6767: real time    0.6796
    MIXING:  cpu time    0.0025: real time    0.0025
    --------------------------------------------
      LOOP:  cpu time   15.9610: real time   16.0159

 eigenvalue-minimisations  : 13951
 total energy-change (2. order) :-0.1186222E-01  (-0.2428072E-01)
 number of electron     128.0000206 magnetization       9.3596164
 augmentation part       67.7715458 magnetization       6.8772503

 Broyden mixing:
  rms(total) = 0.23337E+00    rms(broyden)= 0.23336E+00
  rms(prec ) = 0.31062E+00
  weight for this iteration     100.00

 eigenvalues of (default mixing * dielectric matrix)
  average eigenvalue GAMMA=   0.6344
  1.6569  0.9778  0.9778  0.5888  0.5888  0.1260  0.1936  0.2448  0.3555

 Free energy of the ion-electron system (eV)
  ---------------------------------------------------
  alpha Z        PSCENC =       531.96363298
  Ewald energy   TEWEN  =     -9401.69593424
  -Hartree energ DENC   =     -2823.75682074
  -exchange      EXHF   =         0.00000000
  -V(xc)+E(xc)   XCENC  =        76.14581918
  PAW double counting   =     12854.61811561   -13198.00260819
  entropy T*S    EENTRO =        -0.00193987
  eigenvalues    EBANDS =       628.33865294
  atomic energy  EATOM  =     11229.46195210
  Solvation  Ediel_sol  =         0.00000000
  ---------------------------------------------------
  free energy    TOTEN  =      -102.92913023 eV

  energy without entropy =     -102.92719036  energy(sigma->0) =     -102.92816029


--------------------------------------------------------------------------------------------------------




--------------------------------------- Iteration      1(  15)  ---------------------------------------


    POTLOK:  cpu time    0.0991: real time    0.0993
    SETDIJ:  cpu time    0.0371: real time    0.0372
    EDDIAG:  cpu time    3.3900: real time    3.4005
  RMM-DIIS:  cpu time   10.9294: real time   10.9689
    ORTHCH:  cpu time    0.6391: real time    0.6419
       DOS:  cpu time    0.0037: real time    0.0039
    CHARGE:  cpu time    0.6853: real time    0.6859
    MIXING:  cpu time    0.0027: real time    0.0027
    --------------------------------------------
      LOOP:  cpu time   15.7865: real time   15.8403

 eigenvalue-minimisations  : 13601
 total energy-change (2. order) : 0.5384618E-02  (-0.5231769E-02)
 number of electron     128.0000206 magnetization       9.2522614
 augmentation part       67.6953022 magnetization       6.8140735

 Broyden mixing:
  rms(total) = 0.11391E+00    rms(broyden)= 0.11391E+00
  rms(prec ) = 0.14270E+00
  weight for this iteration     100.00

 eigenvalues of (default mixing * dielectric matrix)
  average eigenvalue GAMMA=   0.7170
  2.0443  1.1709  1.1709  0.6809  0.6809  0.5471  0.1260  0.1933  0.2467  0.3085

 Free energy of the ion-electron system (eV)
  ---------------------------------------------------
  alpha Z        PSCENC =       531.96363298
  Ewald energy   TEWEN  =     -9401.69593424
  -Hartree energ DENC   =     -2824.71604233
  -exchange      EXHF   =         0.00000000
  -V(xc)+E(xc)   XCENC  =        75.68719768
  PAW double counting   =     12888.88484282   -13232.68352621
  entropy T*S    EENTRO =        -0.00215497
  eigenvalues    EBANDS =       630.17628656
  atomic energy  EATOM  =     11229.46195210
  Solvation  Ediel_sol  =         0.00000000
  ---------------------------------------------------
  free energy    TOTEN  =      -102.92374561 eV

  energy without entropy =     -102.92159064  energy(sigma->0) =     -102.92266812


--------------------------------------------------------------------------------------------------------




--------------------------------------- Iteration      1(  16)  ---------------------------------------


    POTLOK:  cpu time    0.1011: real time    0.1033
    SETDIJ:  cpu time    0.0365: real time    0.0366
    EDDIAG:  cpu time    3.3925: real time    3.4027
  RMM-DIIS:  cpu time   11.6226: real time   11.6636
    ORTHCH:  cpu time    0.6426: real time    0.6431
       DOS:  cpu time    0.0037: real time    0.0039
    CHARGE:  cpu time    0.6780: real time    0.6808
    MIXING:  cpu time    0.0028: real time    0.0028
    --------------------------------------------
      LOOP:  cpu time   16.4798: real time   16.5368

 eigenvalue-minimisations  : 14530
 total energy-change (2. order) : 0.1739799E-02  (-0.1751018E-02)
 number of electron     128.0000206 magnetization       9.3449683
 augmentation part       67.7304011 magnetization       6.8845347

 Broyden mixing:
  rms(total) = 0.81902E-01    rms(broyden)= 0.81901E-01
  rms(prec ) = 0.87581E-01
  weight for this iteration     100.00

 eigenvalues of (default mixing * dielectric matrix)
  average eigenvalue GAMMA=   0.7457
  2.2894  1.0645  1.0645  0.7720  0.7720  0.7718  0.5905  0.1260  0.1933  0.2463
  0.3121

 Free energy of the ion-electron system (eV)
  ---------------------------------------------------
  alpha Z        PSCENC =       531.96363298
  Ewald energy   TEWEN  =     -9401.69593424
  -Hartree energ DENC   =     -2823.67040718
  -exchange      EXHF   =         0.00000000
  -V(xc)+E(xc)   XCENC  =        75.54743131
  PAW double counting   =     12937.43025304   -13281.44186428
  entropy T*S    EENTRO =        -0.00211093
  eigenvalues    EBANDS =       629.48504138
  atomic energy  EATOM  =     11229.46195210
  Solvation  Ediel_sol  =         0.00000000
  ---------------------------------------------------
  free energy    TOTEN  =      -102.92200581 eV

  energy without entropy =     -102.91989488  energy(sigma->0) =     -102.92095035


--------------------------------------------------------------------------------------------------------




--------------------------------------- Iteration      1(  17)  ---------------------------------------


    POTLOK:  cpu time    0.0991: real time    0.0993
    SETDIJ:  cpu time    0.0367: real time    0.0367
    EDDIAG:  cpu time    3.4143: real time    3.4246
  RMM-DIIS:  cpu time   11.5828: real time   11.6254
    ORTHCH:  cpu time    0.6419: real time    0.6446
       DOS:  cpu time    0.0038: real time    0.0040
    CHARGE:  cpu time    0.6911: real time    0.6918
    MIXING:  cpu time    0.0030: real time    0.0030
    --------------------------------------------
      LOOP:  cpu time   16.4727: real time   16.5294

 eigenvalue-minimisations  : 14462
 total energy-change (2. order) :-0.3792064E-02  (-0.4939818E-03)
 number of electron     128.0000206 magnetization       9.4299195
 augmentation part       67.7582863 magnetization       6.9679296

 Broyden mixing:
  rms(total) = 0.39617E-01    rms(broyden)= 0.39616E-01
  rms(prec ) = 0.42968E-01
  weight for this iteration     100.00

 eigenvalues of (default mixing * dielectric matrix)
  average eigenvalue GAMMA=   0.8056
  2.3246  1.7027  1.0018  1.0018  0.7510  0.7510  0.6916  0.5641  0.1260  0.1933
  0.2465  0.3128

 Free energy of the ion-electron system (eV)
  ---------------------------------------------------
  alpha Z        PSCENC =       531.96363298
  Ewald energy   TEWEN  =     -9401.69593424
  -Hartree energ DENC   =     -2823.04102019
  -exchange      EXHF   =         0.00000000
  -V(xc)+E(xc)   XCENC  =        75.73102625
  PAW double counting   =     12962.11227360   -13306.25807774
  entropy T*S    EENTRO =        -0.00214138
  eigenvalues    EBANDS =       628.80249074
  atomic energy  EATOM  =     11229.46195210
  Solvation  Ediel_sol  =         0.00000000
  ---------------------------------------------------
  free energy    TOTEN  =      -102.92579787 eV

  energy without entropy =     -102.92365649  energy(sigma->0) =     -102.92472718


--------------------------------------------------------------------------------------------------------




--------------------------------------- Iteration      1(  18)  ---------------------------------------


    POTLOK:  cpu time    0.1125: real time    0.1190
    SETDIJ:  cpu time    0.0388: real time    0.0389
    EDDIAG:  cpu time    3.4552: real time    3.4653
  RMM-DIIS:  cpu time   12.3882: real time   12.4256
    ORTHCH:  cpu time    0.6446: real time    0.6471
       DOS:  cpu time    0.0038: real time    0.0040
    CHARGE:  cpu time    0.6870: real time    0.6895
    MIXING:  cpu time    0.0032: real time    0.0032
    --------------------------------------------
      LOOP:  cpu time   17.3333: real time   17.3927

 eigenvalue-minimisations  : 15402
 total energy-change (2. order) :-0.9734014E-03  (-0.1968492E-03)
 number of electron     128.0000206 magnetization       9.4483391
 augmentation part       67.7750539 magnetization       6.9900219

 Broyden mixing:
  rms(total) = 0.11721E-01    rms(broyden)= 0.11720E-01
  rms(prec ) = 0.15146E-01
  weight for this iteration     100.00

 eigenvalues of (default mixing * dielectric matrix)
  average eigenvalue GAMMA=   0.8601
  2.2929  2.2929  1.0714  1.0714  0.8218  0.8218  0.6867  0.6867  0.5576  0.1260
  0.1933  0.2465  0.3127

 Free energy of the ion-electron system (eV)
  ---------------------------------------------------
  alpha Z        PSCENC =       531.96363298
  Ewald energy   TEWEN  =     -9401.69593424
[...]
     79      11.1173      0.00000
     80      11.3052      0.00000
     81      11.6193      0.00000
     82      11.8937      0.00000
     83      12.0206      0.00000
     84      12.4830      0.00000


--------------------------------------------------------------------------------------------------------


 soft charge-density along one line, spin component           1
         0         1         2         3         4         5         6         7         8         9
 total charge-density along one line

 soft charge-density along one line, spin component           2
         0         1         2         3         4         5         6         7         8         9
 total charge-density along one line

 pseudopotential strength for first ion, spin component:           1
 -1.719  -0.005   0.031  -0.005   0.000  -2.351  -0.005   0.030
 -0.005  -1.712   0.011  -0.008  -0.022  -0.005  -2.345   0.010
  0.031   0.011  -1.747   0.011   0.000   0.030   0.010  -2.378
 -0.005  -0.008   0.011  -1.712   0.022  -0.005  -0.007   0.010
  0.000  -0.022   0.000   0.022  -1.771   0.000  -0.021   0.000
 -2.351  -0.005   0.030  -0.005   0.000  -2.914  -0.005   0.029
 -0.005  -2.345   0.010  -0.007  -0.021  -0.005  -2.907   0.010
  0.030   0.010  -2.378   0.010   0.000   0.029   0.010  -2.939
 -0.005  -0.007   0.010  -2.345   0.021  -0.005  -0.007   0.010
  0.000  -0.021   0.000   0.021  -2.401   0.000  -0.020   0.000
  0.004  -0.006  -0.002  -0.006   0.000   0.004  -0.006  -0.002
  0.007  -0.011  -0.003  -0.011   0.000   0.007  -0.010  -0.003
  0.000   0.004  -0.001  -0.002  -0.001   0.000   0.003  -0.001
 -0.002   0.000   0.000   0.000   0.000  -0.002   0.000   0.000
  0.000  -0.002  -0.001   0.004   0.001   0.000  -0.002  -0.001
  0.001   0.005  -0.001  -0.003  -0.001   0.000   0.005  -0.001
 -0.003   0.000   0.001   0.000   0.000  -0.003   0.000   0.001
  0.001  -0.003  -0.001   0.005   0.001   0.000  -0.003  -0.001
 pseudopotential strength for first ion, spin component:           2
 -1.522   0.005  -0.011   0.005  -0.000  -2.164   0.004  -0.010
  0.005  -1.517  -0.008  -0.014   0.015   0.004  -2.159  -0.007
 -0.011  -0.008  -1.453  -0.008   0.000  -0.010  -0.007  -2.097
  0.005  -0.014  -0.008  -1.517  -0.015   0.004  -0.014  -0.007
 -0.000   0.015   0.000  -0.015  -1.462  -0.000   0.014   0.000
 -2.164   0.004  -0.010   0.004  -0.000  -2.735   0.004  -0.010
  0.004  -2.159  -0.007  -0.014   0.014   0.004  -2.731  -0.007
 -0.010  -0.007  -2.097  -0.007   0.000  -0.010  -0.007  -2.671
  0.004  -0.014  -0.007  -2.159  -0.014   0.004  -0.013  -0.007
 -0.000   0.014   0.000  -0.014  -2.105  -0.000   0.014   0.000
 -0.003   0.001  -0.001   0.001   0.000  -0.003   0.001  -0.000
 -0.006   0.001  -0.001   0.001   0.000  -0.006   0.002  -0.001
  0.000  -0.004  -0.000   0.003  -0.001   0.000  -0.004  -0.000
  0.003   0.000  -0.002   0.000   0.000   0.002   0.000  -0.002
  0.000   0.003  -0.000  -0.004   0.001   0.000   0.002  -0.000
  0.000  -0.006  -0.000   0.004  -0.001   0.000  -0.006  -0.000
  0.004   0.000  -0.002   0.000   0.000   0.003   0.000  -0.002
  0.000   0.004  -0.000  -0.006   0.001   0.000   0.003  -0.000
 total augmentation occupancy for first ion, spin component:           1
  2.076   0.078   0.066   0.078  -0.000  -0.565  -0.077  -0.046  -0.077   0.000  -0.126   0.038   0.009   0.004   0.009  -0.001
  0.078   2.006  -0.033   0.099   0.041  -0.078  -0.521   0.028  -0.097  -0.040  -0.082   0.039  -0.004   0.004   0.006  -0.001
  0.066  -0.033   2.747  -0.033  -0.000  -0.046   0.028  -1.036   0.028   0.000  -0.006  -0.003  -0.009  -0.021  -0.009   0.000
  0.078   0.099  -0.033   2.006  -0.041  -0.078  -0.097   0.028  -0.521   0.040  -0.082   0.039   0.006   0.004  -0.004   0.000
 -0.000   0.041  -0.000  -0.041   2.618   0.000  -0.040  -0.000   0.040  -0.954   0.000  -0.000  -0.022  -0.000   0.022   0.001
 -0.565  -0.078  -0.046  -0.078   0.000   0.854   0.077   0.023   0.077  -0.000   0.079  -0.024  -0.010  -0.003  -0.010   0.001
 -0.077  -0.521   0.028  -0.097  -0.040   0.077   0.827  -0.017   0.095   0.025   0.049  -0.025   0.008  -0.007  -0.004  -0.000
 -0.046   0.028  -1.036   0.028  -0.000   0.023  -0.017   1.084  -0.017  -0.000   0.003   0.002   0.008   0.020   0.008  -0.001
 -0.077  -0.097   0.028  -0.521   0.040   0.077   0.095  -0.017   0.827  -0.025   0.049  -0.025  -0.004  -0.007   0.008  -0.000
 -0.000  -0.040   0.000   0.040  -0.954   0.000   0.025   0.000  -0.025   1.032   0.000   0.000   0.018   0.000  -0.018  -0.001
 -0.126  -0.082  -0.006  -0.082   0.000   0.079   0.049   0.003   0.049   0.000   2.110  -0.286  -0.011   0.011  -0.011   0.001
  0.038   0.039  -0.003   0.039  -0.000  -0.024  -0.025   0.002  -0.025   0.000  -0.286   0.049   0.002  -0.001   0.002  -0.000
  0.009  -0.004  -0.009   0.006  -0.022  -0.010   0.008   0.008  -0.004   0.018  -0.011   0.002   0.255   0.001   0.002  -0.026
  0.004   0.004  -0.021   0.004  -0.000  -0.003  -0.007   0.020  -0.007  -0.000   0.011  -0.001   0.001   0.258   0.001  -0.002
  0.009   0.006  -0.009  -0.004   0.022  -0.010  -0.004   0.008   0.008  -0.018  -0.011   0.002   0.002   0.001   0.255  -0.002
 -0.001  -0.001   0.000   0.000   0.001   0.001  -0.000  -0.001  -0.000  -0.001   0.001  -0.000  -0.026  -0.002  -0.002   0.003
  0.000  -0.001   0.000  -0.001   0.000  -0.000   0.001  -0.002   0.001   0.000  -0.001   0.000  -0.002  -0.027  -0.002   0.001
 -0.001   0.000   0.000  -0.001  -0.001   0.001  -0.000  -0.001  -0.000   0.001   0.001  -0.000  -0.002  -0.002  -0.026   0.001
 total augmentation occupancy for first ion, spin component:           2
  0.321  -0.077  -0.172  -0.077   0.000  -0.191   0.079   0.087   0.079   0.000  -0.046   0.003  -0.001   0.087  -0.001  -0.000
 -0.077   0.297  -0.073   0.069   0.144   0.078  -0.175   0.037  -0.069  -0.072   0.045  -0.001  -0.079   0.003   0.087   0.003
 -0.172  -0.073   0.529  -0.073   0.000   0.088   0.037  -0.252   0.037  -0.000  -0.003  -0.004  -0.002   0.037  -0.002   0.000
 -0.077   0.069  -0.073   0.297  -0.144   0.078  -0.069   0.037  -0.175   0.072   0.045  -0.001   0.087   0.003  -0.079  -0.003
  0.000   0.144   0.000  -0.144   0.605   0.000  -0.072  -0.000   0.072  -0.297   0.000   0.000   0.004  -0.000  -0.004  -0.000
 -0.191   0.078   0.088   0.078  -0.000   0.088  -0.072  -0.033  -0.072   0.000   0.031  -0.006   0.000  -0.063   0.000   0.000
  0.079  -0.175   0.037  -0.069  -0.072  -0.072   0.078  -0.014   0.063   0.026  -0.028   0.005   0.050  -0.002  -0.063  -0.005
  0.087   0.037  -0.252   0.037  -0.000  -0.033  -0.014   0.074  -0.014   0.000   0.002   0.002   0.002  -0.037   0.002  -0.000
  0.079  -0.069   0.037  -0.175   0.072  -0.072   0.063  -0.014   0.078  -0.026  -0.028   0.005  -0.063  -0.002   0.050   0.005
 -0.000  -0.072  -0.000   0.072  -0.297  -0.000   0.026   0.000  -0.026   0.099   0.000   0.000  -0.002   0.000   0.002   0.000
 -0.046   0.045  -0.003   0.045   0.000   0.031  -0.028   0.002  -0.028   0.000  -0.043   0.012  -0.000  -0.010  -0.000   0.000
  0.003  -0.001  -0.004  -0.001   0.000  -0.006   0.005   0.002   0.005   0.000   0.012  -0.002   0.000  -0.004   0.000  -0.000
 -0.001  -0.079  -0.002   0.087   0.004   0.000   0.050   0.002  -0.063  -0.002  -0.000   0.000  -0.001  -0.006   0.008   0.000
  0.087   0.003   0.037   0.003   0.000  -0.063  -0.002  -0.037  -0.002   0.000  -0.010  -0.004  -0.006  -0.002  -0.006   0.001
 -0.001   0.087  -0.002  -0.079  -0.004   0.000  -0.063   0.002   0.050   0.002  -0.000   0.000   0.008  -0.006  -0.001  -0.001
 -0.000   0.003   0.000  -0.003  -0.000   0.000  -0.005  -0.000   0.005   0.000   0.000  -0.000   0.000   0.001  -0.001  -0.000
 -0.003  -0.000   0.000  -0.000   0.000   0.005   0.000   0.001   0.000   0.000  -0.003   0.001   0.001   0.000   0.001  -0.000
 -0.000  -0.003   0.000   0.003   0.000   0.000   0.005  -0.000  -0.005  -0.000   0.000  -0.000  -0.001   0.001   0.000   0.000


------------------------ aborting loop because EDIFF is reached ----------------------------------------





 total charge     

# of ion       s       p       d       tot
------------------------------------------
    1        0.466   0.425   8.395   9.286
    2        0.464   0.424   8.388   9.276
    3        0.466   0.424   8.365   9.255
    4        0.467   0.422   8.384   9.272
    5        0.467   0.422   8.384   9.272
    6        0.466   0.424   8.365   9.255
    7        0.464   0.424   8.388   9.276
    8        0.466   0.425   8.395   9.286
    9        0.321   0.310   4.905   5.536
   10        0.323   0.315   4.890   5.529
   11        0.332   0.320   4.935   5.587
   12        0.340   0.334   4.940   5.615
   13        0.339   0.319   4.959   5.617
   14        0.328   0.312   4.944   5.585
   15        1.272   1.858   0.360   3.489
   16        1.259   1.811   0.349   3.418
--------------------------------------------------
tot          8.239   8.970  97.346 114.555



 magnetization (x)

# of ion       s       p       d       tot
------------------------------------------
    1       -0.002  -0.001   0.276   0.273
    2       -0.005  -0.000   0.282   0.277
    3       -0.004  -0.002   0.273   0.267
    4       -0.003  -0.004   0.261   0.254
    5       -0.003  -0.004   0.261   0.254
    6       -0.004  -0.002   0.273   0.267
    7       -0.005  -0.000   0.282   0.277
    8       -0.002  -0.001   0.276   0.273
    9       -0.039  -0.031  -3.547  -3.617
   10        0.037   0.056   3.541   3.634
   11       -0.042  -0.043  -3.493  -3.578
   12        0.019   0.030   3.467   3.516
   13        0.038   0.012   3.518   3.568
   14        0.033   0.017   3.536   3.587
   15        0.010   0.011  -0.003   0.018
   16       -0.012  -0.081  -0.005  -0.098
--------------------------------------------------
tot          0.018  -0.045   9.198   9.171

    CHARGE:  cpu time    0.6779: real time    0.6787
    FORLOC:  cpu time    0.0072: real time    0.0072
    FORNL :  cpu time    5.0502: real time    5.0555
    STRESS:  cpu time   15.2197: real time   15.2387
    FORCOR:  cpu time    0.1020: real time    0.1023
    FORHAR:  cpu time    0.0161: real time    0.0162
    MIXING:  cpu time    0.0041: real time    0.0041
    OFIELD:  cpu time    0.0000: real time    0.0000

  FORCE on cell =-STRESS in cart. coord.  units (eV):
  Direction    XX          YY          ZZ          XY          YZ          ZX
  --------------------------------------------------------------------------------------
  Alpha Z   531.96363   531.96363   531.96363
  Ewald   -3133.31337 -3133.31337 -3135.09741    -0.00000    -0.00000    -0.00000
  Hartree   941.19218   941.19218   940.53337    -0.00000    -0.00000    -0.00000
  E(xc)    -671.58510  -671.58510  -671.28624     0.00000     0.00000    -0.00000
  Local    -165.29004  -165.29004  -162.19193    -0.00000     0.00000    -0.00000
  n-local  -147.43861  -145.03037  -146.07153    -0.08526    -0.22104     0.01971
  augment  1580.02002  1580.02002  1580.05451     0.00000    -0.00000     0.00000
  Kinetic  1055.41881  1071.25395  1061.56147     0.52438     1.73835     1.37123
  Fock        0.00000     0.00000     0.00000     0.00000     0.00000     0.00000
  -------------------------------------------------------------------------------------
  Total       0.08921     0.08921    -0.53413     0.00000    -0.00000     0.00000
  in kB       0.67569     0.67569    -4.04565     0.00000    -0.00000     0.00000
  external pressure =       -0.90 kB  Pullay stress =        0.00 kB


 VOLUME and BASIS-vectors are now :
 -----------------------------------------------------------------------------
  energy-cutoff  :      550.00
  volume of cell :      211.53
      direct lattice vectors                 reciprocal lattice vectors
     5.958292296  0.000000000  0.000000000     0.167833324  0.000000000  0.000000000
     0.000000000  5.958292296  0.000000000     0.000000000  0.167833324  0.000000000
     0.000000000  0.000000000  5.958292296     0.000000000  0.000000000  0.167833324

  length of vectors
     5.958292296  5.958292296  5.958292296     0.167833324  0.167833324  0.167833324


 FORCES acting on ions
    electron-ion (+dipol)            ewald-force                    non-local-force                 convergence-correction
 -----------------------------------------------------------------------------------------------
   -.186E+02 -.186E+02 0.233E+02   0.187E+02 0.187E+02 -.231E+02   -.657E-01 -.657E-01 -.137E+00   0.606E-02 0.606E-02 -.124E-01
   0.186E+02 -.186E+02 0.233E+02   -.187E+02 0.187E+02 -.231E+02   0.657E-01 -.657E-01 -.137E+00   -.606E-02 0.606E-02 -.124E-01
   -.186E+02 0.186E+02 0.233E+02   0.187E+02 -.187E+02 -.231E+02   -.657E-01 0.657E-01 -.137E+00   0.606E-02 -.606E-02 -.124E-01
   0.186E+02 0.186E+02 0.233E+02   -.187E+02 -.187E+02 -.231E+02   0.657E-01 0.657E-01 -.137E+00   -.606E-02 -.606E-02 -.124E-01
   -.186E+02 -.186E+02 -.233E+02   0.187E+02 0.187E+02 0.231E+02   -.657E-01 -.657E-01 0.137E+00   0.606E-02 0.606E-02 0.124E-01
   0.186E+02 -.186E+02 -.233E+02   -.187E+02 0.187E+02 0.231E+02   0.657E-01 -.657E-01 0.137E+00   -.606E-02 0.606E-02 0.124E-01
   -.186E+02 0.186E+02 -.233E+02   0.187E+02 -.187E+02 0.231E+02   -.657E-01 0.657E-01 0.137E+00   0.606E-02 -.606E-02 0.124E-01
   0.186E+02 0.186E+02 -.233E+02   -.187E+02 -.187E+02 0.231E+02   0.657E-01 0.657E-01 0.137E+00   -.606E-02 -.606E-02 0.124E-01
   0.174E-12 -.170E-13 -.898E-12   0.472E-14 -.527E-14 -.713E-13   0.000E+00 0.000E+00 0.000E+00   -.102E-13 0.536E-13 0.208E-13
   0.166E-12 0.134E-12 0.256E-12   0.332E-14 -.231E-13 -.324E-13   0.000E+00 0.000E+00 0.000E+00   -.334E-14 -.421E-13 -.411E-15
   -.780E-14 0.216E-12 -.412E-13   -.558E-14 0.571E-13 -.145E-13   0.000E+00 0.000E+00 0.000E+00   0.387E-14 -.541E-13 0.370E-14
   -.976E-14 -.514E-13 0.176E-12   -.281E-13 -.616E-13 0.156E-13   0.000E+00 0.000E+00 0.000E+00   -.136E-13 0.424E-13 0.183E-15
   0.159E-12 -.378E-13 0.970E-12   0.154E-13 0.122E-13 0.141E-13   0.000E+00 0.000E+00 0.000E+00   0.126E-13 0.383E-13 -.385E-13
   -.243E-14 0.211E-12 0.175E-12   -.443E-13 -.235E-13 0.425E-13   0.000E+00 0.000E+00 0.000E+00   -.293E-14 -.285E-13 0.120E-13
   -.165E-13 -.201E-13 -.587E-14   -.500E-14 -.210E-13 0.792E-14   0.000E+00 0.000E+00 0.000E+00   -.216E-14 0.169E-13 0.320E-14
   -.441E-13 -.283E-12 -.569E-12   0.135E-13 0.228E-13 -.143E-14   0.000E+00 0.000E+00 0.000E+00   0.208E-14 -.140E-13 -.182E-14
 -----------------------------------------------------------------------------------------------
   0.760E-11 0.180E-10 0.181E-10   -.347E-14 -.690E-14 -.572E-13   -.139E-16 -.278E-16 0.000E+00   0.275E-12 0.233E-12 -.466E-12


 POSITION                                       TOTAL-FORCE (eV/Angst)
 -----------------------------------------------------------------------------------
      1.46885      1.46885      1.51280         0.001645      0.001645      0.006391
      4.48944      1.46885      1.51280        -0.001645      0.001645      0.006391
      1.46885      4.48944      1.51280         0.001645     -0.001645      0.006391
      4.48944      4.48944      1.51280        -0.001645     -0.001645      0.006391
      1.46885      1.46885      4.44550         0.001645      0.001645     -0.006391
      4.48944      1.46885      4.44550        -0.001645      0.001645     -0.006391
      1.46885      4.48944      4.44550         0.001645     -0.001645     -0.006391
      4.48944      4.48944      4.44550        -0.001645     -0.001645     -0.006391
      2.97915      0.00000      0.00000         0.000000      0.000000     -0.000000
      2.97915      2.97915      0.00000         0.000000      0.000000     -0.000000
      0.00000      2.97915      0.00000         0.000000      0.000000     -0.000000
      0.00000      0.00000      2.97915         0.000000      0.000000     -0.000000
      2.97915      0.00000      2.97915         0.000000      0.000000     -0.000000
      0.00000      2.97915      2.97915         0.000000      0.000000     -0.000000
      0.00000      0.00000      0.00000         0.000000      0.000000     -0.000000
      2.97915      2.97915      2.97915         0.000000      0.000000     -0.000000
 -----------------------------------------------------------------------------------
    total drift:                                0.000000      0.000000      0.000000


--------------------------------------------------------------------------------------------------------



  FREE ENERGIE OF THE ION-ELECTRON SYSTEM (eV)
  ---------------------------------------------------
  free  energy   TOTEN  =      -102.92680703 eV

  energy  without entropy=     -102.92463967  energy(sigma->0) =     -102.92572335



--------------------------------------------------------------------------------------------------------


    POTLOK:  cpu time    0.1377: real time    0.1378


--------------------------------------------------------------------------------------------------------




--------------------------------------------------------------------------------------------------------


  
 reached required accuracy - stopping structural energy minimisation
     LOOP+:  cpu time  412.9987: real time  413.8466
    4ORBIT:  cpu time    0.0000: real time    0.0000



 total charge     

# of ion       s       p       d       tot
------------------------------------------
    1        0.466   0.425   8.395   9.286
    2        0.464   0.424   8.388   9.276
    3        0.466   0.424   8.365   9.255
    4        0.467   0.422   8.384   9.272
    5        0.467   0.422   8.384   9.272
    6        0.466   0.424   8.365   9.255
    7        0.464   0.424   8.388   9.276
    8        0.466   0.425   8.395   9.286
    9        0.321   0.310   4.905   5.536
   10        0.323   0.315   4.890   5.529
   11        0.332   0.320   4.935   5.587
   12        0.340   0.334   4.940   5.615
   13        0.339   0.319   4.959   5.617
   14        0.328   0.312   4.944   5.585
   15        1.272   1.858   0.360   3.489
   16        1.259   1.811   0.349   3.418
--------------------------------------------------
tot          8.239   8.970  97.346 114.555



 magnetization (x)

# of ion       s       p       d       tot
------------------------------------------
    1       -0.002  -0.001   0.276   0.273
    2       -0.005  -0.000   0.282   0.277
    3       -0.004  -0.002   0.273   0.267
    4       -0.003  -0.004   0.261   0.254
    5       -0.003  -0.004   0.261   0.254
    6       -0.004  -0.002   0.273   0.267
    7       -0.005  -0.000   0.282   0.277
    8       -0.002  -0.001   0.276   0.273
    9       -0.039  -0.031  -3.547  -3.617
   10        0.037   0.056   3.541   3.634
   11       -0.042  -0.043  -3.493  -3.578
   12        0.019   0.030   3.467   3.516
   13        0.038   0.012   3.518   3.568
   14        0.033   0.017   3.536   3.587
   15        0.010   0.011  -0.003   0.018
   16       -0.012  -0.081  -0.005  -0.098
--------------------------------------------------
tot          0.018  -0.045   9.198   9.171


 total amount of memory used by VASP MPI-rank0   103426. kBytes
=======================================================================

   base      :      30000. kBytes
   nonlr-proj:       6812. kBytes
   fftplans  :       1269. kBytes
   grid      :       6573. kBytes
   one-center:        497. kBytes
   wavefun   :      58275. kBytes

  
  
 General timing and accounting informations for this job:
 ========================================================
  
                  Total CPU time used (sec):      423.512
                            User time (sec):      400.540
                          System time (sec):       22.972
                         Elapsed time (sec):      424.927
  
                   Maximum memory used (kb):      138440.
                   Average memory used (kb):           0.
  
                          Minor page faults:     10339636
                          Major page faults:            8
                 Voluntary context switches:         1834
