 vasp.5.4.4.18Apr17-6-g9f103f2a35 (build May 21 2018 20:56:50) complex           
 executed on             LinuxGNU date 2021.10.15  15:41:51
 running on   12 total cores
 distrk:  each k-point on   12 cores,    1 groups
 distr:  one band on NCORES_PER_BAND=   1 cores,   12 groups


--------------------------------------------------------------------------------------------------------


 INCAR:
 POTCAR:    PAW_PBE Ni 02Aug2007                  
 POTCAR:    PAW_PBE Mn 06Sep2000                  
 POTCAR:    PAW_PBE In 08Apr2002                  

 ----------------------------------------------------------------------------- 
|                                                                             |
|           W    W    AA    RRRRR   N    N  II  N    N   GGGG   !!!           |
|           W    W   A  A   R    R  NN   N  II  NN   N  G    G  !!!           |
|           W    W  A    A  R    R  N N  N  II  N N  N  G       !!!           |
|           W WW W  AAAAAA  RRRRR   N  N N  II  N  N N  G  GGG   !            |
|           WW  WW  A    A  R   R   N   NN  II  N   NN  G    G                |
|           W    W  A    A  R    R  N    N  II  N    N   GGGG   !!!           |
|                                                                             |
|      For optimal performance we recommend to set                            |
|        NCORE= 4 - approx SQRT( number of cores)                             |
|      NCORE specifies how many cores store one orbital (NPAR=cpu/NCORE).     |
|      This setting can  greatly improve the performance of VASP for DFT.     |
|      The default,   NCORE=1            might be grossly inefficient         |
|      on modern multi-core architectures or massively parallel machines.     |
|      Do your own testing !!!!                                               |
|      Unfortunately you need to use the default for GW and RPA calculations. |
|      (for HF NCORE is supported but not extensively tested yet)             |
|                                                                             |
 ----------------------------------------------------------------------------- 

 POTCAR:    PAW_PBE Ni 02Aug2007                  
   VRHFIN =Ni:                                                                  
   LEXCH  = PE                                                                  
   EATOM  =  1077.6739 eV,   79.2068 Ry                                         
                                                                                
   TITEL  = PAW_PBE Ni 02Aug2007                                                
   LULTRA =        F    use ultrasoft PP ?                                      
   IUNSCR =        1    unscreen: 0-lin 1-nonlin 2-no                           
   RPACOR =    2.000    partial core radius                                     
   POMASS =   58.690; ZVAL   =   10.000    mass and valenz                      
   RCORE  =    2.300    outmost cutoff radius                                   
   RWIGS  =    2.430; RWIGS  =    1.286    wigner-seitz radius (au A)           
   ENMAX  =  269.532; ENMIN  =  202.149 eV                                      
   RCLOC  =    1.201    cutoff for local pot                                    
   LCOR   =        T    correct aug charges                                     
   LPAW   =        T    paw PP                                                  
   EAUG   =  544.565                                                            
   DEXC   =    0.000                                                            
   RMAX   =    2.357    core radius for proj-oper                               
   RAUG   =    1.300    factor for augmentation sphere                          
   RDEP   =    2.390    radius for radial grids                                 
   RDEPT  =    1.838    core radius for aug-charge                              
                                                                                
   Atomic configuration                                                         
    9 entries                                                                   
     n  l   j            E        occ.                                          
     1  0  0.50     -8206.4253   2.0000                                         
     2  0  0.50      -976.1748   2.0000                                         
     2  1  1.50      -839.0571   6.0000                                         
     3  0  0.50      -105.9991   2.0000                                         
     3  1  1.50       -66.4603   6.0000                                         
     3  2  2.50        -4.6458   9.0000                                         
     4  0  0.50        -4.4926   1.0000                                         
     4  1  1.50        -4.0817   0.0000                                         
     4  3  2.50        -1.3606   0.0000                                         
   Description                                                                  
     l       E           TYP  RCUT    TYP  RCUT                                 
     2     -4.6457903     23  2.300                                             
     2     -6.0063729     23  2.300                                             
     0     -4.4925590     23  2.300                                             
     0      5.0102601     23  2.300                                             
     1     -2.7211652     23  2.300                                             
     1     16.5183231     23  2.300                                             
  local pseudopotential read in
  partial core-charges read in
  partial kinetic energy density read in
  atomic valenz-charges read in
  non local Contribution for L=           2  read in
    real space projection operators read in
  non local Contribution for L=           2  read in
    real space projection operators read in
  non local Contribution for L=           0  read in
    real space projection operators read in
  non local Contribution for L=           0  read in
    real space projection operators read in
  non local Contribution for L=           1  read in
    real space projection operators read in
  non local Contribution for L=           1  read in
    real space projection operators read in
    PAW grid and wavefunctions read in

   number of l-projection  operators is LMAX  =           6
   number of lm-projection operators is LMMAX =          18

 POTCAR:    PAW_PBE Mn 06Sep2000                  
   VRHFIN =Mn: d6 s1                                                            
   LEXCH  = PE                                                                  
   EATOM  =   416.7541 eV,   30.6306 Ry                                         
                                                                                
   TITEL  = PAW_PBE Mn 06Sep2000                                                
   LULTRA =        F    use ultrasoft PP ?                                      
   IUNSCR =        1    unscreen: 0-lin 1-nonlin 2-no                           
   RPACOR =    2.000    partial core radius                                     
   POMASS =   54.938; ZVAL   =    7.000    mass and valenz                      
   RCORE  =    2.300    outmost cutoff radius                                   
   RWIGS  =    2.500; RWIGS  =    1.323    wigner-seitz radius (au A)           
   ENMAX  =  269.864; ENMIN  =  202.398 eV                                      
   RCLOC  =    1.725    cutoff for local pot                                    
   LCOR   =        T    correct aug charges                                     
   LPAW   =        T    paw PP                                                  
   EAUG   =  500.711                                                            
   DEXC   =    0.000                                                            
   RMAX   =    2.343    core radius for proj-oper                               
   RAUG   =    1.300    factor for augmentation sphere                          
   RDEP   =    2.338    radius for radial grids                                 
   RDEPT  =    1.911    core radius for aug-charge                              
                                                                                
   Atomic configuration                                                         
    9 entries                                                                   
     n  l   j            E        occ.                                          
     1  0  0.50     -6424.8288   2.0000                                         
     2  0  0.50      -739.1154   2.0000                                         
     2  1  1.50      -625.3949   6.0000                                         
     3  0  0.50       -81.6100   2.0000                                         
     3  1  1.50       -50.4667   6.0000                                         
     3  2  2.50        -3.3745   6.0000                                         
     4  0  0.50        -4.1331   1.0000                                         
     4  1  0.50        -4.0817   0.0000                                         
     4  3  2.50        -1.3606   0.0000                                         
   Description                                                                  
     l       E           TYP  RCUT    TYP  RCUT                                 
     2     -3.3744664     23  2.300                                             
     2     -4.7350490     23  2.300                                             
     0     -4.1331408     23  2.300                                             
     0      7.6656614     23  2.300                                             
     1     -2.7211652     23  2.300                                             
     1     20.4087390     23  2.300                                             
  local pseudopotential read in
  partial core-charges read in
  partial kinetic energy density read in
  atomic valenz-charges read in
  non local Contribution for L=           2  read in
    real space projection operators read in
  non local Contribution for L=           2  read in
    real space projection operators read in
  non local Contribution for L=           0  read in
    real space projection operators read in
  non local Contribution for L=           0  read in
    real space projection operators read in
  non local Contribution for L=           1  read in
    real space projection operators read in
  non local Contribution for L=           1  read in
    real space projection operators read in
    PAW grid and wavefunctions read in

   number of l-projection  operators is LMAX  =           6
   number of lm-projection operators is LMMAX =          18

 POTCAR:    PAW_PBE In 08Apr2002                  
   VRHFIN =In: s2p1                                                             
   LEXCH  = PE                                                                  
   EATOM  =    53.7908 eV,    3.9535 Ry                                         
                                                                                
   TITEL  = PAW_PBE In 08Apr2002                                                
   LULTRA =        F    use ultrasoft PP ?                                      
   IUNSCR =        1    unscreen: 0-lin 1-nonlin 2-no                           
   RPACOR =    2.400    partial core radius                                     
   POMASS =  114.820; ZVAL   =    3.000    mass and valenz                      
   RCORE  =    3.100    outmost cutoff radius                                   
   RWIGS  =    3.170; RWIGS  =    1.677    wigner-seitz radius (au A)           
   ENMAX  =   95.934; ENMIN  =   71.951 eV                                      
   ICORE  =        3    local potential                                         
   LCOR   =        T    correct aug charges                                     
   LPAW   =        T    paw PP                                                  
   EAUG   =  237.125                                                            
   DEXC   =    0.000                                                            
   RMAX   =    3.168    core radius for proj-oper                               
   RAUG   =    1.300    factor for augmentation sphere                          
   RDEP   =    3.187    radius for radial grids                                 
   RDEPT  =    2.711    core radius for aug-charge                              
                                                                                
   Atomic configuration                                                         
   13 entries                                                                   
     n  l   j            E        occ.                                          
     1  0  0.50    -27747.9169   2.0000                                         
     2  0  0.50     -4154.4438   2.0000                                         
     2  1  1.50     -3728.4305   6.0000                                         
     3  0  0.50      -788.3680   2.0000                                         
     3  1  1.50      -648.9215   6.0000                                         
     3  2  2.50      -432.5893  10.0000                                         
     4  0  0.50      -119.6363   2.0000                                         
     4  1  1.50       -78.1086   6.0000                                         
     4  2  2.50       -18.6227  10.0000                                         
     5  0  0.50        -8.2107   2.0000                                         
     5  1  0.50        -2.5185   1.0000                                         
     5  2  2.50        -1.3606   0.0000                                         
     4  3  2.50        -2.7212   0.0000                                         
   Description                                                                  
     l       E           TYP  RCUT    TYP  RCUT                                 
     0     -8.2107306     23  3.100                                             
     0     -6.1485975     23  3.100                                             
     1     -2.5184867     23  3.100                                             
     1      3.2427302     23  3.100                                             
     2     -1.3605826     23  3.100                                             
     3     -1.3605826     23  3.100                                             
  local pseudopotential read in
  partial core-charges read in
  partial kinetic energy density read in
  atomic valenz-charges read in
  non local Contribution for L=           0  read in
    real space projection operators read in
  non local Contribution for L=           0  read in
    real space projection operators read in
  non local Contribution for L=           1  read in
    real space projection operators read in
  non local Contribution for L=           1  read in
    real space projection operators read in
  non local Contribution for L=           2  read in
    real space projection operators read in
    PAW grid and wavefunctions read in

   number of l-projection  operators is LMAX  =           5
   number of lm-projection operators is LMMAX =          13

 Optimization of the real space projectors (new method)

 maximal supplied QI-value         = 16.25
 optimisation between [QCUT,QGAM] = [ 11.86, 23.89] = [ 39.41,159.82] Ry 
 Optimized for a Real-space Cutoff    1.33 Angstroem

   l    n(q)    QCUT    max X(q) W(low)/X(q) W(high)/X(q)  e(spline) 
   2      9    11.864    60.317    0.21E-03    0.51E-03    0.25E-06
   2      9    11.864    55.921    0.21E-03    0.51E-03    0.26E-06
   0      9    11.864    51.690    0.22E-03    0.30E-04    0.17E-06
   0      9    11.864    30.015    0.20E-03    0.28E-04    0.15E-06
   1      9    11.864    18.849    0.76E-04    0.33E-03    0.17E-06
   1      9    11.864    14.624    0.60E-04    0.28E-03    0.15E-06
 Optimization of the real space projectors (new method)

 maximal supplied QI-value         = 16.25
 optimisation between [QCUT,QGAM] = [ 11.86, 23.89] = [ 39.41,159.82] Ry 
 Optimized for a Real-space Cutoff    1.36 Angstroem

   l    n(q)    QCUT    max X(q) W(low)/X(q) W(high)/X(q)  e(spline) 
   2      9    11.864   110.144    0.49E-03    0.50E-03    0.21E-06
   2      9    11.864   103.200    0.49E-03    0.51E-03    0.22E-06
   0     10    11.864    68.437    0.12E-03    0.41E-04    0.21E-06
   0     10    11.864    33.971    0.11E-03    0.36E-04    0.19E-06
   1      9    11.864    17.065    0.24E-03    0.26E-03    0.93E-07
   1      9    11.864    12.540    0.19E-03    0.20E-03    0.80E-07
 Optimization of the real space projectors (new method)

 maximal supplied QI-value         = 12.09
 optimisation between [QCUT,QGAM] = [ 11.97, 23.95] = [ 40.14,160.58] Ry 
 Optimized for a Real-space Cutoff    1.63 Angstroem

   l    n(q)    QCUT    max X(q) W(low)/X(q) W(high)/X(q)  e(spline) 
   0     12    11.973   106.980    0.33E-03    0.16E-03    0.25E-05
   0     12    11.973    81.086    0.37E-03    0.18E-03    0.28E-05
   1     11    11.973    53.097    0.22E-03    0.42E-03    0.40E-05
   1     11    11.973    32.621    0.20E-03    0.40E-03    0.37E-05
   2     11    11.973     8.820    0.30E-03    0.17E-03    0.41E-06
  PAW_PBE Ni 02Aug2007                  :
 energy of atom  1       EATOM=-1077.6739
 kinetic energy error for atom=    0.0027 (will be added to EATOM!!)
  PAW_PBE Mn 06Sep2000                  :
 energy of atom  2       EATOM= -416.7541
 kinetic energy error for atom=    0.0022 (will be added to EATOM!!)
  PAW_PBE In 08Apr2002                  :
 energy of atom  3       EATOM=  -53.7908
 kinetic energy error for atom=    0.0000 (will be added to EATOM!!)


 POSCAR: Ni2MnIn                                 
  positions in direct lattice
  velocities in cartesian coordinates
 exchange correlation table for  LEXCH =        8
   RHO(1)=    0.500       N(1)  =     2000
   RHO(2)=  100.500       N(2)  =     4000



--------------------------------------------------------------------------------------------------------


 ion  position               nearest neighbor table
   1  0.250  0.267  0.268-  13 2.47  14 2.47  11 2.59  12 2.59   9 2.59  10 2.59  15 2.70  16 2.70
                             5 2.78   3 2.79   2 2.98   2 2.98
   2  0.750  0.267  0.268-  13 2.47  14 2.47  11 2.59  12 2.59   9 2.59  10 2.59  15 2.70  16 2.70
                             6 2.78   4 2.79   1 2.98   1 2.98
   3  0.250  0.733  0.268-  13 2.47  14 2.47  11 2.59  12 2.59   9 2.59  10 2.59  15 2.70  16 2.70
                             7 2.78   1 2.79   4 2.98   4 2.98
   4  0.750  0.733  0.268-  13 2.47  14 2.47  11 2.59  12 2.59   9 2.59  10 2.59  15 2.70  16 2.70
                             8 2.78   2 2.79   3 2.98   3 2.98
   5  0.250  0.267  0.732-  13 2.47  14 2.47  11 2.59  12 2.59   9 2.59  10 2.59  15 2.70  16 2.70
                             1 2.78   7 2.79   6 2.98   6 2.98
   6  0.750  0.267  0.732-  13 2.47  14 2.47  11 2.59  12 2.59   9 2.59  10 2.59  15 2.70  16 2.70
                             2 2.78   8 2.79   5 2.98   5 2.98
   7  0.250  0.733  0.732-  13 2.47  14 2.47  11 2.59  12 2.59   9 2.59  10 2.59  15 2.70  16 2.70
                             3 2.78   5 2.79   8 2.98   8 2.98
   8  0.750  0.733  0.732-  13 2.47  14 2.47  11 2.59  12 2.59   9 2.59  10 2.59  15 2.70  16 2.70
                             4 2.78   6 2.79   7 2.98   7 2.98
   9  0.500  0.500  0.000-   1 2.59   2 2.59   3 2.59   4 2.59   5 2.59   6 2.59   7 2.59   8 2.59
                            10 2.98  13 2.98  16 2.98  13 2.98  16 2.98  10 2.98
  10  0.000  0.500  0.000-   1 2.59   2 2.59   3 2.59   4 2.59   5 2.59   6 2.59   7 2.59   8 2.59
                             9 2.98  14 2.98  15 2.98  14 2.98  15 2.98   9 2.98
  11  0.000  0.000  0.500-   1 2.59   2 2.59   3 2.59   4 2.59   5 2.59   6 2.59   7 2.59   8 2.59
                            12 2.98  14 2.98  15 2.98  15 2.98  14 2.98  12 2.98
  12  0.500  0.000  0.500-   1 2.59   2 2.59   3 2.59   4 2.59   5 2.59   6 2.59   7 2.59   8 2.59
                            11 2.98  13 2.98  16 2.98  16 2.98  13 2.98  11 2.98
  13  0.500  0.500  0.500-   1 2.47   2 2.47   3 2.47   4 2.47   5 2.47   6 2.47   7 2.47   8 2.47
                             9 2.98  12 2.98  14 2.98   9 2.98  12 2.98  14 2.98
  14  0.000  0.500  0.500-   1 2.47   2 2.47   3 2.47   4 2.47   5 2.47   6 2.47   7 2.47   8 2.47
                            10 2.98  11 2.98  13 2.98  10 2.98  11 2.98  13 2.98
  15  0.000  0.000  0.000-   1 2.70   2 2.70   3 2.70   4 2.70   5 2.70   6 2.70   7 2.70   8 2.70
                            10 2.98  11 2.98  16 2.98  11 2.98  10 2.98  16 2.98
  16  0.500  0.000  0.000-   1 2.70   2 2.70   3 2.70   4 2.70   5 2.70   6 2.70   7 2.70   8 2.70
                             9 2.98  12 2.98  15 2.98  12 2.98   9 2.98  15 2.98

  LATTYP: Found a simple cubic cell.
 ALAT       =     5.9689409284
  
  Lattice vectors:
  
 A1 = (   5.9689409284,   0.0000000000,   0.0000000000)
 A2 = (   0.0000000000,   5.9689409284,   0.0000000000)
 A3 = (   0.0000000000,   0.0000000000,   5.9689409284)


Analysis of symmetry for initial positions (statically):
=====================================================================
 Subroutine PRICEL returns following result:
 
  LATTYP: Found a simple tetragonal cell.
 ALAT       =     5.9689409284
 C/A-ratio  =     0.5000000000
  
  Lattice vectors:
  
 A1 = (   0.0000000000,   5.9689409284,   0.0000000000)
 A2 = (   0.0000000000,   0.0000000000,  -5.9689409284)
 A3 = (  -2.9844704642,   0.0000000000,   0.0000000000)
 
   2 primitive cells build up your supercell.
 

 Routine SETGRP: Setting up the symmetry group for a 
 simple cubic supercell.


 Subroutine GETGRP returns: Found  8 space group operations
 (whereof  8 operations were pure point group operations)
 out of a pool of 48 trial point group operations.


The static configuration has the point symmetry D_2h.


Analysis of symmetry for dynamics (positions and initial velocities):
=====================================================================
 Subroutine PRICEL returns following result:
 
  LATTYP: Found a simple tetragonal cell.
 ALAT       =     5.9689409284
 C/A-ratio  =     0.5000000000
  
  Lattice vectors:
  
 A1 = (   0.0000000000,   5.9689409284,   0.0000000000)
 A2 = (   0.0000000000,   0.0000000000,  -5.9689409284)
 A3 = (  -2.9844704642,   0.0000000000,   0.0000000000)
 
   2 primitive cells build up your supercell.
 

 Routine SETGRP: Setting up the symmetry group for a 
 simple cubic supercell.


 Subroutine GETGRP returns: Found  8 space group operations
 (whereof  8 operations were pure point group operations)
 out of a pool of 48 trial point group operations.


The dynamic configuration has the point symmetry D_2h.


Analysis of structural, dynamic, and magnetic symmetry:
=====================================================================
 Subroutine PRICEL returns following result:
 
  LATTYP: Found a simple tetragonal cell.
 ALAT       =     5.9689409284
 C/A-ratio  =     0.5000000000
  
  Lattice vectors:
  
 A1 = (   0.0000000000,   5.9689409284,   0.0000000000)
 A2 = (   0.0000000000,   0.0000000000,  -5.9689409284)
 A3 = (  -2.9844704642,   0.0000000000,   0.0000000000)
 
   2 primitive cells build up your supercell.
 

 Routine SETGRP: Setting up the symmetry group for a 
 simple cubic supercell.


 Subroutine GETGRP returns: Found  8 space group operations
 (whereof  8 operations were pure point group operations)
 out of a pool of 48 trial point group operations.


The magnetic configuration has the point symmetry D_2h.


 Subroutine INISYM returns: Found  8 space group operations
 (whereof  8 operations are pure point group operations),
 and found     2 'primitive' translations



 KPOINTS: k-points                                

Automatic generation of k-mesh.
Space group operators:
 irot       det(A)        alpha          n_x          n_y          n_z        tau_x        tau_y        tau_z
    1     1.000000     0.000000     1.000000     0.000000     0.000000    -0.000000     0.000000    -0.000000
    2    -1.000000     0.000000     1.000000     0.000000     0.000000    -0.000000     0.000000    -0.000000
    3     1.000000   180.000000     0.000000     0.000000     1.000000    -0.000000     0.000000    -0.000000
    4    -1.000000   180.000000     0.000000     0.000000     1.000000    -0.000000     0.000000    -0.000000
    5     1.000000   180.000000     1.000000     0.000000     0.000000    -0.000000     0.000000    -0.000000
    6    -1.000000   180.000000     1.000000     0.000000     0.000000    -0.000000     0.000000    -0.000000
    7     1.000000   180.000000     0.000000     1.000000     0.000000    -0.000000     0.000000    -0.000000
    8    -1.000000   180.000000     0.000000     1.000000     0.000000    -0.000000     0.000000    -0.000000
 
 Subroutine IBZKPT returns following result:
 ===========================================
 
 Found     64 irreducible k-points:
 
 Following reciprocal coordinates:
            Coordinates               Weight
  0.000000  0.000000  0.000000      1.000000
  0.142857  0.000000  0.000000      2.000000
  0.285714  0.000000  0.000000      2.000000
  0.428571  0.000000  0.000000      2.000000
  0.000000  0.142857  0.000000      2.000000
  0.142857  0.142857  0.000000      4.000000
  0.285714  0.142857  0.000000      4.000000
  0.428571  0.142857  0.000000      4.000000
  0.000000  0.285714  0.000000      2.000000
  0.142857  0.285714  0.000000      4.000000
  0.285714  0.285714  0.000000      4.000000
  0.428571  0.285714  0.000000      4.000000
  0.000000  0.428571  0.000000      2.000000
  0.142857  0.428571  0.000000      4.000000
  0.285714  0.428571  0.000000      4.000000
  0.428571  0.428571  0.000000      4.000000
  0.000000  0.000000  0.142857      2.000000
  0.142857  0.000000  0.142857      4.000000
  0.285714  0.000000  0.142857      4.000000
  0.428571  0.000000  0.142857      4.000000
  0.000000  0.142857  0.142857      4.000000
  0.142857  0.142857  0.142857      8.000000
  0.285714  0.142857  0.142857      8.000000
  0.428571  0.142857  0.142857      8.000000
  0.000000  0.285714  0.142857      4.000000
  0.142857  0.285714  0.142857      8.000000
  0.285714  0.285714  0.142857      8.000000
  0.428571  0.285714  0.142857      8.000000
  0.000000  0.428571  0.142857      4.000000
  0.142857  0.428571  0.142857      8.000000
  0.285714  0.428571  0.142857      8.000000
  0.428571  0.428571  0.142857      8.000000
  0.000000  0.000000  0.285714      2.000000
  0.142857  0.000000  0.285714      4.000000
  0.285714  0.000000  0.285714      4.000000
  0.428571  0.000000  0.285714      4.000000
  0.000000  0.142857  0.285714      4.000000
  0.142857  0.142857  0.285714      8.000000
  0.285714  0.142857  0.285714      8.000000
  0.428571  0.142857  0.285714      8.000000
  0.000000  0.285714  0.285714      4.000000
  0.142857  0.285714  0.285714      8.000000
  0.285714  0.285714  0.285714      8.000000
  0.428571  0.285714  0.285714      8.000000
  0.000000  0.428571  0.285714      4.000000
  0.142857  0.428571  0.285714      8.000000
  0.285714  0.428571  0.285714      8.000000
  0.428571  0.428571  0.285714      8.000000
  0.000000  0.000000  0.428571      2.000000
  0.142857  0.000000  0.428571      4.000000
  0.285714  0.000000  0.428571      4.000000
  0.428571  0.000000  0.428571      4.000000
  0.000000  0.142857  0.428571      4.000000
  0.142857  0.142857  0.428571      8.000000
  0.285714  0.142857  0.428571      8.000000
  0.428571  0.142857  0.428571      8.000000
  0.000000  0.285714  0.428571      4.000000
  0.142857  0.285714  0.428571      8.000000
  0.285714  0.285714  0.428571      8.000000
  0.428571  0.285714  0.428571      8.000000
  0.000000  0.428571  0.428571      4.000000
  0.142857  0.428571  0.428571      8.000000
  0.285714  0.428571  0.428571      8.000000
  0.428571  0.428571  0.428571      8.000000
 
 Following cartesian coordinates:
            Coordinates               Weight
  0.000000  0.000000  0.000000      1.000000
  0.137856  0.000000  0.000000      2.000000
  0.275713  0.000000  0.000000      2.000000
  0.413569  0.000000  0.000000      2.000000
  0.000000  0.137856  0.000000      2.000000
  0.137856  0.137856  0.000000      4.000000
  0.275713  0.137856  0.000000      4.000000
  0.413569  0.137856  0.000000      4.000000
  0.000000  0.275713  0.000000      2.000000
  0.137856  0.275713  0.000000      4.000000
  0.275713  0.275713  0.000000      4.000000
  0.413569  0.275713  0.000000      4.000000
  0.000000  0.413569  0.000000      2.000000
  0.137856  0.413569  0.000000      4.000000
  0.275713  0.413569  0.000000      4.000000
  0.413569  0.413569  0.000000      4.000000
  0.000000  0.000000  0.137856      2.000000
  0.137856  0.000000  0.137856      4.000000
  0.275713  0.000000  0.137856      4.000000
  0.413569  0.000000  0.137856      4.000000
  0.000000  0.137856  0.137856      4.000000
  0.137856  0.137856  0.137856      8.000000
  0.275713  0.137856  0.137856      8.000000
  0.413569  0.137856  0.137856      8.000000
  0.000000  0.275713  0.137856      4.000000
  0.137856  0.275713  0.137856      8.000000
  0.275713  0.275713  0.137856      8.000000
  0.413569  0.275713  0.137856      8.000000
  0.000000  0.413569  0.137856      4.000000
  0.137856  0.413569  0.137856      8.000000
  0.275713  0.413569  0.137856      8.000000
  0.413569  0.413569  0.137856      8.000000
  0.000000  0.000000  0.275713      2.000000
  0.137856  0.000000  0.275713      4.000000
  0.275713  0.000000  0.275713      4.000000
  0.413569  0.000000  0.275713      4.000000
  0.000000  0.137856  0.275713      4.000000
  0.137856  0.137856  0.275713      8.000000
  0.275713  0.137856  0.275713      8.000000
  0.413569  0.137856  0.275713      8.000000
  0.000000  0.275713  0.275713      4.000000
  0.137856  0.275713  0.275713      8.000000
  0.275713  0.275713  0.275713      8.000000
  0.413569  0.275713  0.275713      8.000000
  0.000000  0.413569  0.275713      4.000000
  0.137856  0.413569  0.275713      8.000000
  0.275713  0.413569  0.275713      8.000000
  0.413569  0.413569  0.275713      8.000000
  0.000000  0.000000  0.413569      2.000000
  0.137856  0.000000  0.413569      4.000000
  0.275713  0.000000  0.413569      4.000000
  0.413569  0.000000  0.413569      4.000000
  0.000000  0.137856  0.413569      4.000000
  0.137856  0.137856  0.413569      8.000000
  0.275713  0.137856  0.413569      8.000000
  0.413569  0.137856  0.413569      8.000000
  0.000000  0.275713  0.413569      4.000000
  0.137856  0.275713  0.413569      8.000000
  0.275713  0.275713  0.413569      8.000000
  0.413569  0.275713  0.413569      8.000000
  0.000000  0.413569  0.413569      4.000000
  0.137856  0.413569  0.413569      8.000000
  0.275713  0.413569  0.413569      8.000000
  0.413569  0.413569  0.413569      8.000000
 


--------------------------------------------------------------------------------------------------------




 Dimension of arrays:
   k-points           NKPTS =     64   k-points in BZ     NKDIM =     64   number of bands    NBANDS=     84
   number of dos      NEDOS =    301   number of ions     NIONS =     16
   non local maximal  LDIM  =      6   non local SUM 2l+1 LMDIM =     18
   total plane-waves  NPLWV =  46656
   max r-space proj   IRMAX =   4027   max aug-charges    IRDMAX=  24946
   dimension x,y,z NGX =    36 NGY =   36 NGZ =   36
   dimension x,y,z NGXF=    72 NGYF=   72 NGZF=   72
   support grid    NGXF=    72 NGYF=   72 NGZF=   72
   ions per type =               8   6   2
   NGX,Y,Z   is equivalent  to a cutoff of  10.03, 10.03, 10.03 a.u.
   NGXF,Y,Z  is equivalent  to a cutoff of  20.05, 20.05, 20.05 a.u.

 SYSTEM =  Testrun for NiMnIn                      
 POSCAR =  Ni2MnIn                                 

 Startparameter for this run:
   NWRITE =      2    write-flag & timer
   PREC   = normal    normal or accurate (medium, high low for compatibility)
   ISTART =      0    job   : 0-new  1-cont  2-samecut
   ICHARG =      2    charge: 1-file 2-atom 10-const
   ISPIN  =      2    spin polarized calculation?
   LNONCOLLINEAR =      F non collinear calculations
   LSORBIT =      F    spin-orbit coupling
   INIWAV =      1    electr: 0-lowe 1-rand  2-diag
   LASPH  =      F    aspherical Exc in radial PAW
   METAGGA=      F    non-selfconsistent MetaGGA calc.

 Electronic Relaxation 1
   ENCUT  =  550.0 eV  40.42 Ry    6.36 a.u.  11.41 11.41 11.41*2*pi/ulx,y,z
   ENINI  =  550.0     initial cutoff
   ENAUG  =  544.6 eV  augmentation charge cutoff
   NELM   =     60;   NELMIN=  2; NELMDL= -5     # of ELM steps 
   EDIFF  = 0.1E-04   stopping-criterion for ELM
   LREAL  =      T    real-space projection
   NLSPLINE    = F    spline interpolate recip. space projectors
   LCOMPAT=      F    compatible to vasp.4.4
   GGA_COMPAT  = T    GGA compatible to vasp.4.4-vasp.4.6
   LMAXPAW     = -100 max onsite density
   LMAXMIX     =    2 max onsite mixed and CHGCAR
   VOSKOWN=      0    Vosko Wilk Nusair interpolation
   ROPT   =   -0.00050  -0.00050  -0.00050
 Ionic relaxation
   EDIFFG = -.1E-01   stopping-criterion for IOM
   NSW    =   1000    number of steps for IOM
   NBLOCK =      1;   KBLOCK =   1000    inner block; outer block 
   IBRION =      2    ionic relax: 0-MD 1-quasi-New 2-CG
   NFREE  =      1    steps in history (QN), initial steepest desc. (CG)
   ISIF   =      2    stress and relaxation
   IWAVPR =     11    prediction:  0-non 1-charg 2-wave 3-comb
   ISYM   =      2    0-nonsym 1-usesym 2-fastsym
   LCORR  =      T    Harris-Foulkes like correction to forces

   POTIM  = 0.5000    time-step for ionic-motion
   TEIN   =    0.0    initial temperature
   TEBEG  =    0.0;   TEEND  =   0.0 temperature during run
   SMASS  =  -3.00    Nose mass-parameter (am)
   estimated Nose-frequenzy (Omega)   =  0.10E-29 period in steps =****** mass=  -0.814E-27a.u.
   SCALEE = 1.0000    scale energy and forces
   NPACO  =    256;   APACO  = 16.0  distance and # of slots for P.C.
   PSTRESS=    0.0 pullay stress

  Mass of Ions in am
   POMASS =  58.69 54.94114.82
  Ionic Valenz
   ZVAL   =  10.00  7.00  3.00
  Atomic Wigner-Seitz radii
   RWIGS  =  -1.00 -1.00 -1.00
  virtual crystal weights 
   VCA    =   1.00  1.00  1.00
   NELECT =     128.0000    total number of electrons
   NUPDOWN=      -1.0000    fix difference up-down

 DOS related values:
   EMIN   =  10.00;   EMAX   =-10.00  energy-range for DOS
   EFERMI =   0.00
   ISMEAR =     0;   SIGMA  =   0.02  broadening in eV -4-tet -1-fermi 0-gaus

 Electronic relaxation 2 (details)
   IALGO  =     68    algorithm
   LDIAG  =      T    sub-space diagonalisation (order eigenvalues)
   LSUBROT=      F    optimize rotation matrix (better conditioning)
   TURBO    =      0    0=normal 1=particle mesh
   IRESTART =      0    0=no restart 2=restart with 2 vectors
   NREBOOT  =      0    no. of reboots
   NMIN     =      0    reboot dimension
   EREF     =   0.00    reference energy to select bands
   IMIX   =      4    mixing-type and parameters
     AMIX     =   0.40;   BMIX     =  1.00
     AMIX_MAG =   1.60;   BMIX_MAG =  1.00
     AMIN     =   0.10
     WC   =   100.;   INIMIX=   1;  MIXPRE=   1;  MAXMIX= -45

 Intra band minimization:
   WEIMIN = 0.0010     energy-eigenvalue tresh-hold
   EBREAK =  0.30E-07  absolut break condition
   DEPER  =   0.30     relativ break condition  

   TIME   =   0.40     timestep for ELM

  volume/ion in A,a.u.               =      13.29        89.70
  Fermi-wavevector in a.u.,A,eV,Ry     =   1.382232  2.612039 25.994811  1.910565
  Thomas-Fermi vector in A             =   2.506942

 Write flags
   LWAVE        =      F    write WAVECAR
   LDOWNSAMPLE  =      F    k-point downsampling of WAVECAR
   LCHARG       =      T    write CHGCAR
   LVTOT        =      F    write LOCPOT, total local potential
   LVHAR        =      F    write LOCPOT, Hartree potential only
   LELF         =      F    write electronic localiz. function (ELF)
   LORBIT       =     11    0 simple, 1 ext, 2 COOP (PROOUT), +10 PAW based schemes


 Dipole corrections
   LMONO  =      F    monopole corrections only (constant potential shift)
   LDIPOL =      F    correct potential (dipole corrections)
   IDIPOL =      0    1-x, 2-y, 3-z, 4-all directions 
   EPSILON=  1.0000000 bulk dielectric constant

 Exchange correlation treatment:
   GGA     =    --    GGA type
   LEXCH   =     8    internal setting for exchange type
   VOSKOWN=      0    Vosko Wilk Nusair interpolation
   LHFCALC =     F    Hartree Fock is set to
   LHFONE  =     F    Hartree Fock one center treatment
   AEXX    =    0.0000 exact exchange contribution

 Linear response parameters
   LEPSILON=     F    determine dielectric tensor
   LRPA    =     F    only Hartree local field effects (RPA)
   LNABLA  =     F    use nabla operator in PAW spheres
   LVEL    =     F    velocity operator in full k-point grid
   LINTERFAST=   F  fast interpolation
   KINTER  =     0    interpolate to denser k-point grid
   CSHIFT  =0.1000    complex shift for real part using Kramers Kronig
   OMEGAMAX=  -1.0    maximum frequency
   DEG_THRESHOLD= 0.2000000E-02 threshold for treating states as degnerate
   RTIME   =   -0.100 relaxation time in fs
  (WPLASMAI=    0.000 imaginary part of plasma frequency in eV, 0.658/RTIME)
   DFIELD  = 0.0000000 0.0000000 0.0000000 field for delta impulse in time

 Orbital magnetization related:
   ORBITALMAG=     F  switch on orbital magnetization
   LCHIMAG   =     F  perturbation theory with respect to B field
   DQ        =  0.001000  dq finite difference perturbation B field
   LLRAUG    =     F  two centre corrections for induced B field



--------------------------------------------------------------------------------------------------------


 conjugate gradient relaxation of ions
 charge density and potential will be updated during run
 spin polarized calculation
 RMM-DIIS sequential band-by-band and
  variant of blocked Davidson during initial phase
 perform sub-space diagonalisation
    before iterative eigenvector-optimisation
 modified Broyden-mixing scheme, WC =      100.0
 initial mixing is a Kerker type mixing with AMIX =  0.4000 and BMIX =      1.0000
 Hartree-type preconditioning will be used
 using additional bands           20
 real space projection scheme for non local part
 use partial core corrections
 calculate Harris-corrections to forces   (improved forces if not selfconsistent)
 use gradient corrections 
 use of overlap-Matrix (Vanderbilt PP)
 Gauss-broadening in eV      SIGMA  =   0.02


--------------------------------------------------------------------------------------------------------


  energy-cutoff  :      550.00
  volume of cell :      212.66
      direct lattice vectors                 reciprocal lattice vectors
     5.968940928  0.000000000  0.000000000     0.167533908  0.000000000  0.000000000
     0.000000000  5.968940928  0.000000000     0.000000000  0.167533908  0.000000000
     0.000000000  0.000000000  5.968940928     0.000000000  0.000000000  0.167533908

  length of vectors
     5.968940928  5.968940928  5.968940928     0.167533908  0.167533908  0.167533908



 k-points in units of 2pi/SCALE and weight: k-points                                
   0.00000000  0.00000000  0.00000000       0.003
   0.13785647  0.00000000  0.00000000       0.006
   0.27571295  0.00000000  0.00000000       0.006
   0.41356942  0.00000000  0.00000000       0.006
   0.00000000  0.13785647  0.00000000       0.006
   0.13785647  0.13785647  0.00000000       0.012
   0.27571295  0.13785647  0.00000000       0.012
   0.41356942  0.13785647  0.00000000       0.012
   0.00000000  0.27571295  0.00000000       0.006
   0.13785647  0.27571295  0.00000000       0.012
   0.27571295  0.27571295  0.00000000       0.012
   0.41356942  0.27571295  0.00000000       0.012
   0.00000000  0.41356942  0.00000000       0.006
   0.13785647  0.41356942  0.00000000       0.012
   0.27571295  0.41356942  0.00000000       0.012
   0.41356942  0.41356942  0.00000000       0.012
   0.00000000  0.00000000  0.13785647       0.006
   0.13785647  0.00000000  0.13785647       0.012
   0.27571295  0.00000000  0.13785647       0.012
   0.41356942  0.00000000  0.13785647       0.012
   0.00000000  0.13785647  0.13785647       0.012
   0.13785647  0.13785647  0.13785647       0.023
   0.27571295  0.13785647  0.13785647       0.023
   0.41356942  0.13785647  0.13785647       0.023
   0.00000000  0.27571295  0.13785647       0.012
   0.13785647  0.27571295  0.13785647       0.023
   0.27571295  0.27571295  0.13785647       0.023
   0.41356942  0.27571295  0.13785647       0.023
   0.00000000  0.41356942  0.13785647       0.012
   0.13785647  0.41356942  0.13785647       0.023
   0.27571295  0.41356942  0.13785647       0.023
   0.41356942  0.41356942  0.13785647       0.023
   0.00000000  0.00000000  0.27571295       0.006
   0.13785647  0.00000000  0.27571295       0.012
   0.27571295  0.00000000  0.27571295       0.012
   0.41356942  0.00000000  0.27571295       0.012
   0.00000000  0.13785647  0.27571295       0.012
   0.13785647  0.13785647  0.27571295       0.023
   0.27571295  0.13785647  0.27571295       0.023
   0.41356942  0.13785647  0.27571295       0.023
   0.00000000  0.27571295  0.27571295       0.012
   0.13785647  0.27571295  0.27571295       0.023
   0.27571295  0.27571295  0.27571295       0.023
   0.41356942  0.27571295  0.27571295       0.023
   0.00000000  0.41356942  0.27571295       0.012
   0.13785647  0.41356942  0.27571295       0.023
   0.27571295  0.41356942  0.27571295       0.023
   0.41356942  0.41356942  0.27571295       0.023
   0.00000000  0.00000000  0.41356942       0.006
   0.13785647  0.00000000  0.41356942       0.012
   0.27571295  0.00000000  0.41356942       0.012
   0.41356942  0.00000000  0.41356942       0.012
   0.00000000  0.13785647  0.41356942       0.012
   0.13785647  0.13785647  0.41356942       0.023
   0.27571295  0.13785647  0.41356942       0.023
   0.41356942  0.13785647  0.41356942       0.023
   0.00000000  0.27571295  0.41356942       0.012
   0.13785647  0.27571295  0.41356942       0.023
   0.27571295  0.27571295  0.41356942       0.023
   0.41356942  0.27571295  0.41356942       0.023
   0.00000000  0.41356942  0.41356942       0.012
   0.13785647  0.41356942  0.41356942       0.023
   0.27571295  0.41356942  0.41356942       0.023
   0.41356942  0.41356942  0.41356942       0.023

 k-points in reciprocal lattice and weights: k-points                                
   0.00000000  0.00000000  0.00000000       0.003
   0.14285714  0.00000000  0.00000000       0.006
   0.28571429  0.00000000  0.00000000       0.006
   0.42857143  0.00000000  0.00000000       0.006
   0.00000000  0.14285714  0.00000000       0.006
   0.14285714  0.14285714  0.00000000       0.012
   0.28571429  0.14285714  0.00000000       0.012
   0.42857143  0.14285714  0.00000000       0.012
   0.00000000  0.28571429  0.00000000       0.006
   0.14285714  0.28571429  0.00000000       0.012
   0.28571429  0.28571429  0.00000000       0.012
   0.42857143  0.28571429  0.00000000       0.012
   0.00000000  0.42857143  0.00000000       0.006
   0.14285714  0.42857143  0.00000000       0.012
   0.28571429  0.42857143  0.00000000       0.012
   0.42857143  0.42857143  0.00000000       0.012
   0.00000000  0.00000000  0.14285714       0.006
   0.14285714  0.00000000  0.14285714       0.012
   0.28571429  0.00000000  0.14285714       0.012
   0.42857143  0.00000000  0.14285714       0.012
   0.00000000  0.14285714  0.14285714       0.012
   0.14285714  0.14285714  0.14285714       0.023
   0.28571429  0.14285714  0.14285714       0.023
   0.42857143  0.14285714  0.14285714       0.023
   0.00000000  0.28571429  0.14285714       0.012
   0.14285714  0.28571429  0.14285714       0.023
   0.28571429  0.28571429  0.14285714       0.023
   0.42857143  0.28571429  0.14285714       0.023
   0.00000000  0.42857143  0.14285714       0.012
   0.14285714  0.42857143  0.14285714       0.023
   0.28571429  0.42857143  0.14285714       0.023
   0.42857143  0.42857143  0.14285714       0.023
   0.00000000  0.00000000  0.28571429       0.006
   0.14285714  0.00000000  0.28571429       0.012
   0.28571429  0.00000000  0.28571429       0.012
   0.42857143  0.00000000  0.28571429       0.012
   0.00000000  0.14285714  0.28571429       0.012
   0.14285714  0.14285714  0.28571429       0.023
   0.28571429  0.14285714  0.28571429       0.023
   0.42857143  0.14285714  0.28571429       0.023
   0.00000000  0.28571429  0.28571429       0.012
   0.14285714  0.28571429  0.28571429       0.023
   0.28571429  0.28571429  0.28571429       0.023
   0.42857143  0.28571429  0.28571429       0.023
   0.00000000  0.42857143  0.28571429       0.012
   0.14285714  0.42857143  0.28571429       0.023
   0.28571429  0.42857143  0.28571429       0.023
   0.42857143  0.42857143  0.28571429       0.023
   0.00000000  0.00000000  0.42857143       0.006
   0.14285714  0.00000000  0.42857143       0.012
   0.28571429  0.00000000  0.42857143       0.012
   0.42857143  0.00000000  0.42857143       0.012
   0.00000000  0.14285714  0.42857143       0.012
   0.14285714  0.14285714  0.42857143       0.023
   0.28571429  0.14285714  0.42857143       0.023
   0.42857143  0.14285714  0.42857143       0.023
   0.00000000  0.28571429  0.42857143       0.012
   0.14285714  0.28571429  0.42857143       0.023
   0.28571429  0.28571429  0.42857143       0.023
   0.42857143  0.28571429  0.42857143       0.023
   0.00000000  0.42857143  0.42857143       0.012
   0.14285714  0.42857143  0.42857143       0.023
   0.28571429  0.42857143  0.42857143       0.023
   0.42857143  0.42857143  0.42857143       0.023

 position of ions in fractional coordinates (direct lattice) 
   0.25000000  0.26665098  0.26750156
   0.75000000  0.26665098  0.26750156
   0.25000000  0.73334902  0.26750156
   0.75000000  0.73334902  0.26750156
   0.25000000  0.26665098  0.73249844
   0.75000000  0.26665098  0.73249844
   0.25000000  0.73334902  0.73249844
   0.75000000  0.73334902  0.73249844
   0.50000000  0.50000000  0.00000000
   0.00000000  0.50000000  0.00000000
   0.00000000  0.00000000  0.50000000
   0.50000000  0.00000000  0.50000000
   0.50000000  0.50000000  0.50000000
   0.00000000  0.50000000  0.50000000
   0.00000000  0.00000000  0.00000000
   0.50000000  0.00000000  0.00000000

 position of ions in cartesian coordinates  (Angst):
   1.49223523  1.59162396  1.59670102
   4.47670570  1.59162396  1.59670102
   1.49223523  4.37731697  1.59670102
   4.47670570  4.37731697  1.59670102
   1.49223523  1.59162396  4.37223991
   4.47670570  1.59162396  4.37223991
   1.49223523  4.37731697  4.37223991
   4.47670570  4.37731697  4.37223991
   2.98447046  2.98447046  0.00000000
   0.00000000  2.98447046  0.00000000
   0.00000000  0.00000000  2.98447046
   2.98447046  0.00000000  2.98447046
   2.98447046  2.98447046  2.98447046
   0.00000000  2.98447046  2.98447046
   0.00000000  0.00000000  0.00000000
   2.98447046  0.00000000  0.00000000



--------------------------------------------------------------------------------------------------------


 k-point  1 :   0.0000 0.0000 0.0000  plane waves:    6235
 k-point  2 :   0.1429 0.0000 0.0000  plane waves:    6227
 k-point  3 :   0.2857 0.0000 0.0000  plane waves:    6243
 k-point  4 :   0.4286 0.0000 0.0000  plane waves:    6238
 k-point  5 :   0.0000 0.1429 0.0000  plane waves:    6227
 k-point  6 :   0.1429 0.1429 0.0000  plane waves:    6236
 k-point  7 :   0.2857 0.1429 0.0000  plane waves:    6232
 k-point  8 :   0.4286 0.1429 0.0000  plane waves:    6230
 k-point  9 :   0.0000 0.2857 0.0000  plane waves:    6243
 k-point 10 :   0.1429 0.2857 0.0000  plane waves:    6232
 k-point 11 :   0.2857 0.2857 0.0000  plane waves:    6234
 k-point 12 :   0.4286 0.2857 0.0000  plane waves:    6217
 k-point 13 :   0.0000 0.4286 0.0000  plane waves:    6238
 k-point 14 :   0.1429 0.4286 0.0000  plane waves:    6230
 k-point 15 :   0.2857 0.4286 0.0000  plane waves:    6217
 k-point 16 :   0.4286 0.4286 0.0000  plane waves:    6234
 k-point 17 :   0.0000 0.0000 0.1429  plane waves:    6227
 k-point 18 :   0.1429 0.0000 0.1429  plane waves:    6236
 k-point 19 :   0.2857 0.0000 0.1429  plane waves:    6232
 k-point 20 :   0.4286 0.0000 0.1429  plane waves:    6230
 k-point 21 :   0.0000 0.1429 0.1429  plane waves:    6236
 k-point 22 :   0.1429 0.1429 0.1429  plane waves:    6241
 k-point 23 :   0.2857 0.1429 0.1429  plane waves:    6228
 k-point 24 :   0.4286 0.1429 0.1429  plane waves:    6245
 k-point 25 :   0.0000 0.2857 0.1429  plane waves:    6232
 k-point 26 :   0.1429 0.2857 0.1429  plane waves:    6228
 k-point 27 :   0.2857 0.2857 0.1429  plane waves:    6222
 k-point 28 :   0.4286 0.2857 0.1429  plane waves:    6227
 k-point 29 :   0.0000 0.4286 0.1429  plane waves:    6230
 k-point 30 :   0.1429 0.4286 0.1429  plane waves:    6245
 k-point 31 :   0.2857 0.4286 0.1429  plane waves:    6227
 k-point 32 :   0.4286 0.4286 0.1429  plane waves:    6227
 k-point 33 :   0.0000 0.0000 0.2857  plane waves:    6243
 k-point 34 :   0.1429 0.0000 0.2857  plane waves:    6232
 k-point 35 :   0.2857 0.0000 0.2857  plane waves:    6234
 k-point 36 :   0.4286 0.0000 0.2857  plane waves:    6217
 k-point 37 :   0.0000 0.1429 0.2857  plane waves:    6232
 k-point 38 :   0.1429 0.1429 0.2857  plane waves:    6228
 k-point 39 :   0.2857 0.1429 0.2857  plane waves:    6222
 k-point 40 :   0.4286 0.1429 0.2857  plane waves:    6227
 k-point 41 :   0.0000 0.2857 0.2857  plane waves:    6234
 k-point 42 :   0.1429 0.2857 0.2857  plane waves:    6222
 k-point 43 :   0.2857 0.2857 0.2857  plane waves:    6223
 k-point 44 :   0.4286 0.2857 0.2857  plane waves:    6226
 k-point 45 :   0.0000 0.4286 0.2857  plane waves:    6217
 k-point 46 :   0.1429 0.4286 0.2857  plane waves:    6227
 k-point 47 :   0.2857 0.4286 0.2857  plane waves:    6226
 k-point 48 :   0.4286 0.4286 0.2857  plane waves:    6208
 k-point 49 :   0.0000 0.0000 0.4286  plane waves:    6238
 k-point 50 :   0.1429 0.0000 0.4286  plane waves:    6230
 k-point 51 :   0.2857 0.0000 0.4286  plane waves:    6217
 k-point 52 :   0.4286 0.0000 0.4286  plane waves:    6234
 k-point 53 :   0.0000 0.1429 0.4286  plane waves:    6230
 k-point 54 :   0.1429 0.1429 0.4286  plane waves:    6245
 k-point 55 :   0.2857 0.1429 0.4286  plane waves:    6227
 k-point 56 :   0.4286 0.1429 0.4286  plane waves:    6227
 k-point 57 :   0.0000 0.2857 0.4286  plane waves:    6217
 k-point 58 :   0.1429 0.2857 0.4286  plane waves:    6227
 k-point 59 :   0.2857 0.2857 0.4286  plane waves:    6226
 k-point 60 :   0.4286 0.2857 0.4286  plane waves:    6208
 k-point 61 :   0.0000 0.4286 0.4286  plane waves:    6234
 k-point 62 :   0.1429 0.4286 0.4286  plane waves:    6227
 k-point 63 :   0.2857 0.4286 0.4286  plane waves:    6208
 k-point 64 :   0.4286 0.4286 0.4286  plane waves:    6179

 maximum and minimum number of plane-waves per node :      6245     6179

 maximum number of plane-waves:      6245
 maximum index in each direction: 
   IXMAX=   11   IYMAX=   11   IZMAX=   11
   IXMIN=  -11   IYMIN=  -11   IZMIN=  -11


 serial   3D FFT for wavefunctions
 parallel 3D FFT for charge:
    minimum data exchange during FFTs selected (reduces bandwidth)


 total amount of memory used by VASP MPI-rank0   138913. kBytes
=======================================================================

   base      :      30000. kBytes
   nonlr-proj:       6817. kBytes
   fftplans  :       1269. kBytes
   grid      :       6573. kBytes
   one-center:        497. kBytes
   wavefun   :      93757. kBytes

     INWAV:  cpu time    0.0000: real time    0.0001
 Broyden mixing: mesh for mixing (old mesh)
   NGX = 23   NGY = 23   NGZ = 23
  (NGX  = 72   NGY  = 72   NGZ  = 72)
  gives a total of  12167 points

 initial charge density was supplied:
 charge density of overlapping atoms calculated
 number of electron     128.0000000 magnetization       8.8000000
 keeping initial charge density in first step


--------------------------------------------------------------------------------------------------------


 Maximum index for non-local projection operator         3887
 Maximum index for augmentation-charges         2111 (set IRDMAX)


--------------------------------------------------------------------------------------------------------


 First call to EWALD:  gamma=   0.297
 Maximum number of real-space cells 3x 3x 3
 Maximum number of reciprocal cells 3x 3x 3

    FEWALD:  cpu time    0.0021: real time    0.0021


--------------------------------------- Iteration      1(   1)  ---------------------------------------


    POTLOK:  cpu time    0.1003: real time    0.1147
    SETDIJ:  cpu time    0.0357: real time    0.0357
     EDDAV:  cpu time   38.9625: real time   39.0129
       DOS:  cpu time    0.0056: real time    0.0057
    --------------------------------------------
      LOOP:  cpu time   39.1042: real time   39.1691

 eigenvalue-minimisations  : 21504
 total energy-change (2. order) : 0.1068227E+04  (-0.5420914E+04)
 number of electron     128.0000000 magnetization       8.8000000
 augmentation part      128.0000000 magnetization       8.8000000

 Free energy of the ion-electron system (eV)
  ---------------------------------------------------
  alpha Z        PSCENC =       529.12162853
  Ewald energy   TEWEN  =     -9169.11185348
  -Hartree energ DENC   =     -3249.35814226
  -exchange      EXHF   =         0.00000000
  -V(xc)+E(xc)   XCENC  =        78.38630621
  PAW double counting   =     10320.96726947   -10647.99417394
  entropy T*S    EENTRO =        -0.00120419
  eigenvalues    EBANDS =      1976.75524989
  atomic energy  EATOM  =     11229.46195210
  Solvation  Ediel_sol  =         0.00000000
  ---------------------------------------------------
  free energy    TOTEN  =      1068.22703232 eV

  energy without entropy =     1068.22823651  energy(sigma->0) =     1068.22763441


--------------------------------------------------------------------------------------------------------




--------------------------------------- Iteration      1(   2)  ---------------------------------------


     EDDAV:  cpu time   38.0741: real time   38.1241
       DOS:  cpu time    0.0055: real time    0.0056
    --------------------------------------------
      LOOP:  cpu time   38.0796: real time   38.1297

 eigenvalue-minimisations  : 21504
 total energy-change (2. order) :-0.1066484E+04  (-0.1033096E+04)
 number of electron     128.0000000 magnetization       8.8000000
 augmentation part      128.0000000 magnetization       8.8000000

 Free energy of the ion-electron system (eV)
  ---------------------------------------------------
  alpha Z        PSCENC =       529.12162853
  Ewald energy   TEWEN  =     -9169.11185348
  -Hartree energ DENC   =     -3249.35814226
  -exchange      EXHF   =         0.00000000
  -V(xc)+E(xc)   XCENC  =        78.38630621
  PAW double counting   =     10320.96726947   -10647.99417394
  entropy T*S    EENTRO =        -0.00234230
  eigenvalues    EBANDS =       910.27204312
  atomic energy  EATOM  =     11229.46195210
  Solvation  Ediel_sol  =         0.00000000
  ---------------------------------------------------
  free energy    TOTEN  =         1.74268744 eV

  energy without entropy =        1.74502973  energy(sigma->0) =        1.74385859


--------------------------------------------------------------------------------------------------------




--------------------------------------- Iteration      1(   3)  ---------------------------------------


     EDDAV:  cpu time   41.4107: real time   41.4853
       DOS:  cpu time    0.0060: real time    0.0060
    --------------------------------------------
      LOOP:  cpu time   41.4167: real time   41.4913

 eigenvalue-minimisations  : 23940
 total energy-change (2. order) :-0.1109643E+03  (-0.9959292E+02)
 number of electron     128.0000000 magnetization       8.8000000
 augmentation part      128.0000000 magnetization       8.8000000

 Free energy of the ion-electron system (eV)
  ---------------------------------------------------
  alpha Z        PSCENC =       529.12162853
  Ewald energy   TEWEN  =     -9169.11185348
  -Hartree energ DENC   =     -3249.35814226
  -exchange      EXHF   =         0.00000000
  -V(xc)+E(xc)   XCENC  =        78.38630621
  PAW double counting   =     10320.96726947   -10647.99417394
  entropy T*S    EENTRO =        -0.00268239
  eigenvalues    EBANDS =       799.30805584
  atomic energy  EATOM  =     11229.46195210
  Solvation  Ediel_sol  =         0.00000000
  ---------------------------------------------------
  free energy    TOTEN  =      -109.22163993 eV

  energy without entropy =     -109.21895754  energy(sigma->0) =     -109.22029874


--------------------------------------------------------------------------------------------------------




--------------------------------------- Iteration      1(   4)  ---------------------------------------


     EDDAV:  cpu time   54.2045: real time   54.2926
       DOS:  cpu time    0.0059: real time    0.0060
    --------------------------------------------
      LOOP:  cpu time   54.2104: real time   54.2985

 eigenvalue-minimisations  : 32928
 total energy-change (2. order) :-0.6972282E+01  (-0.6567843E+01)
 number of electron     128.0000000 magnetization       8.8000000
 augmentation part      128.0000000 magnetization       8.8000000

 Free energy of the ion-electron system (eV)
  ---------------------------------------------------
  alpha Z        PSCENC =       529.12162853
  Ewald energy   TEWEN  =     -9169.11185348
  -Hartree energ DENC   =     -3249.35814226
  -exchange      EXHF   =         0.00000000
  -V(xc)+E(xc)   XCENC  =        78.38630621
  PAW double counting   =     10320.96726947   -10647.99417394
  entropy T*S    EENTRO =        -0.00383810
  eigenvalues    EBANDS =       792.33692975
  atomic energy  EATOM  =     11229.46195210
  Solvation  Ediel_sol  =         0.00000000
  ---------------------------------------------------
  free energy    TOTEN  =      -116.19392174 eV

  energy without entropy =     -116.19008363  energy(sigma->0) =     -116.19200268


--------------------------------------------------------------------------------------------------------




--------------------------------------- Iteration      1(   5)  ---------------------------------------


     EDDAV:  cpu time   51.7384: real time   51.8113
       DOS:  cpu time    0.0060: real time    0.0061
    CHARGE:  cpu time    1.1021: real time    1.1030
    MIXING:  cpu time    0.0016: real time    0.0016
    --------------------------------------------
      LOOP:  cpu time   52.8482: real time   52.9220

 eigenvalue-minimisations  : 31536
 total energy-change (2. order) :-0.2285984E+00  (-0.2274207E+00)
 number of electron     127.9999930 magnetization       7.0066136
 augmentation part       60.5753787 magnetization       4.6610113

 Broyden mixing:
  rms(total) = 0.34641E+01    rms(broyden)= 0.34641E+01
  rms(prec ) = 0.53169E+01
  weight for this iteration     100.00

 Free energy of the ion-electron system (eV)
  ---------------------------------------------------
  alpha Z        PSCENC =       529.12162853
  Ewald energy   TEWEN  =     -9169.11185348
  -Hartree energ DENC   =     -3249.35814226
  -exchange      EXHF   =         0.00000000
  -V(xc)+E(xc)   XCENC  =        78.38630621
  PAW double counting   =     10320.96726947   -10647.99417394
  entropy T*S    EENTRO =        -0.00387413
  eigenvalues    EBANDS =       792.10836740
  atomic energy  EATOM  =     11229.46195210
  Solvation  Ediel_sol  =         0.00000000
  ---------------------------------------------------
  free energy    TOTEN  =      -116.42252011 eV

  energy without entropy =     -116.41864598  energy(sigma->0) =     -116.42058305


--------------------------------------------------------------------------------------------------------




--------------------------------------- Iteration      1(   6)  ---------------------------------------


    POTLOK:  cpu time    0.1068: real time    0.1076
    SETDIJ:  cpu time    0.0386: real time    0.0386
    EDDIAG:  cpu time    5.3430: real time    5.3492
  RMM-DIIS:  cpu time   17.0198: real time   17.0398
    ORTHCH:  cpu time    1.0122: real time    1.0132
       DOS:  cpu time    0.0056: real time    0.0057
    CHARGE:  cpu time    1.0726: real time    1.0735
    MIXING:  cpu time    0.0018: real time    0.0018
    --------------------------------------------
      LOOP:  cpu time   24.6004: real time   24.6292

 eigenvalue-minimisations  : 21504
 total energy-change (2. order) : 0.7280827E+01  (-0.1581433E+02)
 number of electron     128.0000015 magnetization       8.3540760
 augmentation part       69.7415896 magnetization       5.5546762

 Broyden mixing:
  rms(total) = 0.44055E+01    rms(broyden)= 0.44054E+01
  rms(prec ) = 0.57221E+01
  weight for this iteration     100.00

 eigenvalues of (default mixing * dielectric matrix)
  average eigenvalue GAMMA=   0.2251
  0.2251

 Free energy of the ion-electron system (eV)
  ---------------------------------------------------
  alpha Z        PSCENC =       529.12162853
  Ewald energy   TEWEN  =     -9169.11185348
  -Hartree energ DENC   =     -3012.49055496
  -exchange      EXHF   =         0.00000000
  -V(xc)+E(xc)   XCENC  =        65.89936899
  PAW double counting   =     11105.75629944   -11398.47516959
  entropy T*S    EENTRO =        -0.00429851
  eigenvalues    EBANDS =       540.70093422
  atomic energy  EATOM  =     11229.46195210
  Solvation  Ediel_sol  =         0.00000000
  ---------------------------------------------------
  free energy    TOTEN  =      -109.14169328 eV

  energy without entropy =     -109.13739477  energy(sigma->0) =     -109.13954403


--------------------------------------------------------------------------------------------------------




--------------------------------------- Iteration      1(   7)  ---------------------------------------


    POTLOK:  cpu time    0.0973: real time    0.0975
    SETDIJ:  cpu time    0.0360: real time    0.0360
    EDDIAG:  cpu time    5.3188: real time    5.3251
  RMM-DIIS:  cpu time   16.8703: real time   16.8937
    ORTHCH:  cpu time    1.0180: real time    1.0198
       DOS:  cpu time    0.0059: real time    0.0059
    CHARGE:  cpu time    1.0826: real time    1.0840
    MIXING:  cpu time    0.0018: real time    0.0018
    --------------------------------------------
      LOOP:  cpu time   24.4307: real time   24.4638

 eigenvalue-minimisations  : 21617
 total energy-change (2. order) : 0.2437830E+00  (-0.2435226E+01)
 number of electron     127.9999920 magnetization       8.5617770
 augmentation part       70.2979367 magnetization       7.0005932

 Broyden mixing:
  rms(total) = 0.29893E+01    rms(broyden)= 0.29892E+01
  rms(prec ) = 0.50269E+01
  weight for this iteration     100.00

 eigenvalues of (default mixing * dielectric matrix)
  average eigenvalue GAMMA=   0.4704
  0.4704  0.4704

 Free energy of the ion-electron system (eV)
  ---------------------------------------------------
  alpha Z        PSCENC =       529.12162853
  Ewald energy   TEWEN  =     -9169.11185348
  -Hartree energ DENC   =     -3008.77137152
  -exchange      EXHF   =         0.00000000
  -V(xc)+E(xc)   XCENC  =        67.58950201
  PAW double counting   =     11411.89387721   -11712.68063212
  entropy T*S    EENTRO =        -0.00298639
  eigenvalues    EBANDS =       543.60197336
  atomic energy  EATOM  =     11229.46195210
  Solvation  Ediel_sol  =         0.00000000
  ---------------------------------------------------
  free energy    TOTEN  =      -108.89791032 eV

  energy without entropy =     -108.89492393  energy(sigma->0) =     -108.89641712


--------------------------------------------------------------------------------------------------------




--------------------------------------- Iteration      1(   8)  ---------------------------------------


    POTLOK:  cpu time    0.0974: real time    0.0975
    SETDIJ:  cpu time    0.0360: real time    0.0360
    EDDIAG:  cpu time    5.3430: real time    5.3490
  RMM-DIIS:  cpu time   16.9189: real time   16.9393
    ORTHCH:  cpu time    1.0172: real time    1.0183
       DOS:  cpu time    0.0061: real time    0.0061
    CHARGE:  cpu time    1.0657: real time    1.0666
    MIXING:  cpu time    0.0018: real time    0.0018
    --------------------------------------------
      LOOP:  cpu time   24.4860: real time   24.5146

 eigenvalue-minimisations  : 21558
 total energy-change (2. order) : 0.3786055E+01  (-0.2046146E+01)
 number of electron     128.0000003 magnetization       9.3657510
 augmentation part       67.1623920 magnetization       6.3324964

 Broyden mixing:
  rms(total) = 0.20107E+01    rms(broyden)= 0.20105E+01
  rms(prec ) = 0.37263E+01
  weight for this iteration     100.00

 eigenvalues of (default mixing * dielectric matrix)
  average eigenvalue GAMMA=   0.5014
  0.7514  0.5509  0.2017

 Free energy of the ion-electron system (eV)
  ---------------------------------------------------
  alpha Z        PSCENC =       529.12162853
  Ewald energy   TEWEN  =     -9169.11185348
  -Hartree energ DENC   =     -3070.54690768
  -exchange      EXHF   =         0.00000000
  -V(xc)+E(xc)   XCENC  =        72.24883931
  PAW double counting   =     11785.96414610   -12112.53847803
  entropy T*S    EENTRO =        -0.00325172
  eigenvalues    EBANDS =       630.29206930
  atomic energy  EATOM  =     11229.46195210
  Solvation  Ediel_sol  =         0.00000000
  ---------------------------------------------------
  free energy    TOTEN  =      -105.11185556 eV

  energy without entropy =     -105.10860385  energy(sigma->0) =     -105.11022971


--------------------------------------------------------------------------------------------------------




--------------------------------------- Iteration      1(   9)  ---------------------------------------


    POTLOK:  cpu time    0.0975: real time    0.0990
    SETDIJ:  cpu time    0.0361: real time    0.0362
    EDDIAG:  cpu time    5.3575: real time    5.3639
  RMM-DIIS:  cpu time   17.6496: real time   17.6715
    ORTHCH:  cpu time    1.0192: real time    1.0201
       DOS:  cpu time    0.0058: real time    0.0058
    CHARGE:  cpu time    1.0779: real time    1.0790
    MIXING:  cpu time    0.0019: real time    0.0019
    --------------------------------------------
      LOOP:  cpu time   25.2456: real time   25.2774

 eigenvalue-minimisations  : 22546
 total energy-change (2. order) : 0.1811325E+01  (-0.2631698E+00)
 number of electron     127.9999972 magnetization       9.4861049
 augmentation part       67.3288115 magnetization       7.6852361

 Broyden mixing:
  rms(total) = 0.10425E+01    rms(broyden)= 0.10424E+01
  rms(prec ) = 0.15227E+01
  weight for this iteration     100.00

 eigenvalues of (default mixing * dielectric matrix)
  average eigenvalue GAMMA=   0.5677
  1.0749  0.5848  0.4344  0.1766

 Free energy of the ion-electron system (eV)
  ---------------------------------------------------
  alpha Z        PSCENC =       529.12162853
  Ewald energy   TEWEN  =     -9169.11185348
  -Hartree energ DENC   =     -3065.04172763
  -exchange      EXHF   =         0.00000000
  -V(xc)+E(xc)   XCENC  =        72.45167403
  PAW double counting   =     12055.92014572   -12388.39833243
  entropy T*S    EENTRO =        -0.00268285
  eigenvalues    EBANDS =       632.29866501
  atomic energy  EATOM  =     11229.46195210
  Solvation  Ediel_sol  =         0.00000000
  ---------------------------------------------------
  free energy    TOTEN  =      -103.30053100 eV

  energy without entropy =     -103.29784815  energy(sigma->0) =     -103.29918958


--------------------------------------------------------------------------------------------------------




--------------------------------------- Iteration      1(  10)  ---------------------------------------


    POTLOK:  cpu time    0.0976: real time    0.0977
    SETDIJ:  cpu time    0.0363: real time    0.0364
    EDDIAG:  cpu time    5.3710: real time    5.3822
  RMM-DIIS:  cpu time   17.0861: real time   17.1067
    ORTHCH:  cpu time    1.0169: real time    1.0180
       DOS:  cpu time    0.0059: real time    0.0059
    CHARGE:  cpu time    1.0772: real time    1.0782
    MIXING:  cpu time    0.0020: real time    0.0020
    --------------------------------------------
      LOOP:  cpu time   24.6930: real time   24.7271

 eigenvalue-minimisations  : 21536
 total energy-change (2. order) :-0.5819887E-01  (-0.1513932E+00)
 number of electron     127.9999957 magnetization       9.1683166
 augmentation part       67.9818717 magnetization       7.0311859

 Broyden mixing:
  rms(total) = 0.77894E+00    rms(broyden)= 0.77891E+00
  rms(prec ) = 0.12417E+01
  weight for this iteration     100.00

 eigenvalues of (default mixing * dielectric matrix)
  average eigenvalue GAMMA=   0.5545
  1.1786  0.5731  0.5731  0.1917  0.2559

 Free energy of the ion-electron system (eV)
  ---------------------------------------------------
  alpha Z        PSCENC =       529.12162853
  Ewald energy   TEWEN  =     -9169.11185348
  -Hartree energ DENC   =     -3051.37606945
  -exchange      EXHF   =         0.00000000
  -V(xc)+E(xc)   XCENC  =        73.11489454
  PAW double counting   =     12313.60227920   -12648.62496218
  entropy T*S    EENTRO =        -0.00251703
  eigenvalues    EBANDS =       620.45591791
  atomic energy  EATOM  =     11229.46195210
  Solvation  Ediel_sol  =         0.00000000
  ---------------------------------------------------
  free energy    TOTEN  =      -103.35872987 eV

  energy without entropy =     -103.35621284  energy(sigma->0) =     -103.35747135


--------------------------------------------------------------------------------------------------------




--------------------------------------- Iteration      1(  11)  ---------------------------------------


    POTLOK:  cpu time    0.0974: real time    0.0975
    SETDIJ:  cpu time    0.0363: real time    0.0363
    EDDIAG:  cpu time    5.3845: real time    5.3910
  RMM-DIIS:  cpu time   17.1804: real time   17.2069
    ORTHCH:  cpu time    1.0220: real time    1.0229
       DOS:  cpu time    0.0057: real time    0.0057
    CHARGE:  cpu time    1.1140: real time    1.1150
    MIXING:  cpu time    0.0021: real time    0.0021
    --------------------------------------------
      LOOP:  cpu time   24.8423: real time   24.8775

 eigenvalue-minimisations  : 21717
 total energy-change (2. order) : 0.1816993E+00  (-0.4022368E-01)
 number of electron     127.9999968 magnetization       8.9170695
 augmentation part       67.6917583 magnetization       6.8730523

 Broyden mixing:
  rms(total) = 0.32156E+00    rms(broyden)= 0.32155E+00
  rms(prec ) = 0.43650E+00
  weight for this iteration     100.00

 eigenvalues of (default mixing * dielectric matrix)
  average eigenvalue GAMMA=   0.6982
  1.7546  0.7703  0.6200  0.6200  0.1858  0.2385

 Free energy of the ion-electron system (eV)
  ---------------------------------------------------
  alpha Z        PSCENC =       529.12162853
  Ewald energy   TEWEN  =     -9169.11185348
  -Hartree energ DENC   =     -3053.09386159
  -exchange      EXHF   =         0.00000000
  -V(xc)+E(xc)   XCENC  =        74.41021746
  PAW double counting   =     12511.82634658   -12851.74048670
  entropy T*S    EENTRO =        -0.00229816
  eigenvalues    EBANDS =       625.95132469
  atomic energy  EATOM  =     11229.46195210
  Solvation  Ediel_sol  =         0.00000000
  ---------------------------------------------------
  free energy    TOTEN  =      -103.17703059 eV

  energy without entropy =     -103.17473243  energy(sigma->0) =     -103.17588151


--------------------------------------------------------------------------------------------------------




--------------------------------------- Iteration      1(  12)  ---------------------------------------


    POTLOK:  cpu time    0.1048: real time    0.1057
    SETDIJ:  cpu time    0.0386: real time    0.0387
    EDDIAG:  cpu time    5.4636: real time    5.4702
  RMM-DIIS:  cpu time   17.4519: real time   17.4750
    ORTHCH:  cpu time    1.0201: real time    1.0212
       DOS:  cpu time    0.0059: real time    0.0059
    CHARGE:  cpu time    1.1194: real time    1.1203
    MIXING:  cpu time    0.0023: real time    0.0023
    --------------------------------------------
      LOOP:  cpu time   25.2066: real time   25.2393

 eigenvalue-minimisations  : 22103
 total energy-change (2. order) :-0.3899299E-01  (-0.2104821E-01)
 number of electron     127.9999970 magnetization       8.7297047
 augmentation part       67.6060299 magnetization       6.6934039

 Broyden mixing:
  rms(total) = 0.30203E+00    rms(broyden)= 0.30202E+00
  rms(prec ) = 0.44955E+00
  weight for this iteration     100.00

 eigenvalues of (default mixing * dielectric matrix)
  average eigenvalue GAMMA=   0.7038
  2.1176  0.7507  0.7507  0.5835  0.3119  0.1849  0.2275

 Free energy of the ion-electron system (eV)
  ---------------------------------------------------
  alpha Z        PSCENC =       529.12162853
  Ewald energy   TEWEN  =     -9169.11185348
  -Hartree energ DENC   =     -3052.12782275
  -exchange      EXHF   =         0.00000000
  -V(xc)+E(xc)   XCENC  =        75.16781536
  PAW double counting   =     12672.06230961   -13014.90522830
  entropy T*S    EENTRO =        -0.00218393
  eigenvalues    EBANDS =       627.11735929
  atomic energy  EATOM  =     11229.46195210
  Solvation  Ediel_sol  =         0.00000000
  ---------------------------------------------------
  free energy    TOTEN  =      -103.21602358 eV

  energy without entropy =     -103.21383965  energy(sigma->0) =     -103.21493161


--------------------------------------------------------------------------------------------------------




--------------------------------------- Iteration      1(  13)  ---------------------------------------


    POTLOK:  cpu time    0.0982: real time    0.0982
    SETDIJ:  cpu time    0.0362: real time    0.0362
    EDDIAG:  cpu time    5.4075: real time    5.4333
  RMM-DIIS:  cpu time   17.7704: real time   17.7963
    ORTHCH:  cpu time    1.0227: real time    1.0246
       DOS:  cpu time    0.0059: real time    0.0059
    CHARGE:  cpu time    1.1237: real time    1.1247
    MIXING:  cpu time    0.0024: real time    0.0024
    --------------------------------------------
      LOOP:  cpu time   25.4669: real time   25.5216

 eigenvalue-minimisations  : 22326
 total energy-change (2. order) : 0.2503112E-01  (-0.5882842E-02)
 number of electron     127.9999969 magnetization       8.5324166
 augmentation part       67.7231100 magnetization       6.5083643

 Broyden mixing:
  rms(total) = 0.11902E+00    rms(broyden)= 0.11902E+00
  rms(prec ) = 0.17604E+00
  weight for this iteration     100.00

 eigenvalues of (default mixing * dielectric matrix)
  average eigenvalue GAMMA=   0.7685
  2.3030  0.9404  0.9404  0.6185  0.6185  0.1853  0.3080  0.2342

 Free energy of the ion-electron system (eV)
  ---------------------------------------------------
  alpha Z        PSCENC =       529.12162853
  Ewald energy   TEWEN  =     -9169.11185348
  -Hartree energ DENC   =     -3048.64922053
  -exchange      EXHF   =         0.00000000
  -V(xc)+E(xc)   XCENC  =        75.33158817
  PAW double counting   =     12775.92638401   -13119.96293399
  entropy T*S    EENTRO =        -0.00205926
  eigenvalues    EBANDS =       624.69352200
  atomic energy  EATOM  =     11229.46195210
  Solvation  Ediel_sol  =         0.00000000
  ---------------------------------------------------
  free energy    TOTEN  =      -103.19099245 eV

  energy without entropy =     -103.18893319  energy(sigma->0) =     -103.18996282


--------------------------------------------------------------------------------------------------------




--------------------------------------- Iteration      1(  14)  ---------------------------------------


    POTLOK:  cpu time    0.0978: real time    0.0981
    SETDIJ:  cpu time    0.0361: real time    0.0361
    EDDIAG:  cpu time    5.4424: real time    5.4492
  RMM-DIIS:  cpu time   19.3734: real time   19.3973
    ORTHCH:  cpu time    1.0247: real time    1.0255
       DOS:  cpu time    0.0197: real time    0.0197
    CHARGE:  cpu time    1.1324: real time    1.1330
    MIXING:  cpu time    0.0025: real time    0.0025
    --------------------------------------------
      LOOP:  cpu time   27.1290: real time   27.1615

 eigenvalue-minimisations  : 24064
 total energy-change (2. order) : 0.3205160E-02  (-0.2693822E-02)
 number of electron     127.9999971 magnetization       8.5043232
 augmentation part       67.7102000 magnetization       6.4654198

 Broyden mixing:
  rms(total) = 0.42559E-01    rms(broyden)= 0.42555E-01
  rms(prec ) = 0.47942E-01
  weight for this iteration     100.00

 eigenvalues of (default mixing * dielectric matrix)
  average eigenvalue GAMMA=   0.8398
  2.4460  1.4560  0.8206  0.8206  0.7022  0.5838  0.1853  0.3088  0.2351

 Free energy of the ion-electron system (eV)
  ---------------------------------------------------
  alpha Z        PSCENC =       529.12162853
  Ewald energy   TEWEN  =     -9169.11185348
  -Hartree energ DENC   =     -3047.77822749
  -exchange      EXHF   =         0.00000000
  -V(xc)+E(xc)   XCENC  =        75.42689226
  PAW double counting   =     12841.11736185   -13185.87707612
  entropy T*S    EENTRO =        -0.00225612
  eigenvalues    EBANDS =       624.45379118
  atomic energy  EATOM  =     11229.46195210
  Solvation  Ediel_sol  =         0.00000000
  ---------------------------------------------------
  free energy    TOTEN  =      -103.18778729 eV

  energy without entropy =     -103.18553118  energy(sigma->0) =     -103.18665924


--------------------------------------------------------------------------------------------------------




--------------------------------------- Iteration      1(  15)  ---------------------------------------


    POTLOK:  cpu time    0.1126: real time    0.1134
    SETDIJ:  cpu time    0.0385: real time    0.0385
    EDDIAG:  cpu time    5.5855: real time    5.5901
  RMM-DIIS:  cpu time   19.0615: real time   19.0756
    ORTHCH:  cpu time    1.0271: real time    1.0279
       DOS:  cpu time    0.0058: real time    0.0058
    CHARGE:  cpu time    1.1403: real time    1.1410
    MIXING:  cpu time    0.0054: real time    0.0054
    --------------------------------------------
      LOOP:  cpu time   26.9767: real time   26.9977

 eigenvalue-minimisations  : 23778
 total energy-change (2. order) :-0.9178981E-05  (-0.3781364E-03)
 number of electron     127.9999971 magnetization       8.4956518
 augmentation part       67.7226901 magnetization       6.4549018

 Broyden mixing:
  rms(total) = 0.23542E-01    rms(broyden)= 0.23542E-01
  rms(prec ) = 0.27043E-01
  weight for this iteration     100.00

 eigenvalues of (default mixing * dielectric matrix)
  average eigenvalue GAMMA=   0.8923
  2.4866  1.8930  0.9557  0.9557  0.6741  0.6741  0.5534  0.1853  0.2352  0.3095

 Free energy of the ion-electron system (eV)
  ---------------------------------------------------
  alpha Z        PSCENC =       529.12162853
  Ewald energy   TEWEN  =     -9169.11185348
  -Hartree energ DENC   =     -3047.57082282
  -exchange      EXHF   =         0.00000000
  -V(xc)+E(xc)   XCENC  =        75.40278529
  PAW double counting   =     12847.30561814   -13191.90783649
  entropy T*S    EENTRO =        -0.00224016
  eigenvalues    EBANDS =       624.11297242
[...]
     79      10.7546      0.00000
     80      11.1790      0.00000
     81      11.6549      0.00000
     82      11.7434      0.00000
     83      12.1627      0.00000
     84      12.2864      0.00000


--------------------------------------------------------------------------------------------------------


 soft charge-density along one line, spin component           1
         0         1         2         3         4         5         6         7         8         9
 total charge-density along one line

 soft charge-density along one line, spin component           2
         0         1         2         3         4         5         6         7         8         9
 total charge-density along one line

 pseudopotential strength for first ion, spin component:           1
 -1.746  -0.000  -0.000  -0.005   0.000  -2.377  -0.000  -0.000
 -0.000  -1.747  -0.008   0.000   0.023  -0.000  -2.378  -0.008
 -0.000  -0.008  -1.784  -0.000  -0.001  -0.000  -0.008  -2.413
 -0.005   0.000  -0.000  -1.748  -0.000  -0.004   0.000  -0.000
  0.000   0.023  -0.001  -0.000  -1.793   0.000   0.022  -0.001
 -2.377  -0.000  -0.000  -0.004   0.000  -2.938  -0.000  -0.000
 -0.000  -2.378  -0.008   0.000   0.022  -0.000  -2.939  -0.007
 -0.000  -0.008  -2.413  -0.000  -0.001  -0.000  -0.007  -2.973
 -0.004   0.000  -0.000  -2.378  -0.000  -0.004   0.000  -0.000
  0.000   0.022  -0.001  -0.000  -2.422   0.000   0.021  -0.001
 -0.000   0.003  -0.002   0.000  -0.000  -0.000   0.003  -0.002
 -0.000   0.005  -0.003   0.000  -0.000  -0.000   0.005  -0.003
  0.000  -0.003   0.005   0.000   0.009   0.000  -0.003   0.005
  0.000  -0.008  -0.011   0.000   0.000   0.000  -0.008  -0.010
 -0.008   0.000  -0.000  -0.002   0.000  -0.008   0.000  -0.000
  0.000  -0.001   0.005   0.000   0.009   0.000  -0.001   0.005
  0.000  -0.009  -0.010   0.000   0.000   0.000  -0.009  -0.010
 -0.009   0.000  -0.000  -0.000   0.000  -0.008   0.000  -0.000
 pseudopotential strength for first ion, spin component:           2
 -1.570  -0.000  -0.000  -0.016   0.000  -2.210  -0.000  -0.000
 -0.000  -1.585   0.008   0.000  -0.014  -0.000  -2.224   0.008
 -0.000   0.008  -1.529  -0.000   0.000  -0.000   0.008  -2.169
 -0.016   0.000  -0.000  -1.583  -0.000  -0.016   0.000  -0.000
  0.000  -0.014   0.000  -0.000  -1.510   0.000  -0.013   0.000
 -2.210  -0.000  -0.000  -0.016   0.000  -2.779  -0.000  -0.000
 -0.000  -2.224   0.008   0.000  -0.013  -0.000  -2.793   0.007
 -0.000   0.008  -2.169  -0.000   0.000  -0.000   0.007  -2.740
 -0.016   0.000  -0.000  -2.222  -0.000  -0.015   0.000  -0.000
  0.000  -0.013   0.000  -0.000  -2.151   0.000  -0.012   0.000
 -0.000  -0.004   0.004   0.000   0.000  -0.000  -0.003   0.004
 -0.000  -0.007   0.007   0.000   0.000  -0.000  -0.007   0.007
  0.000  -0.015   0.005   0.000   0.008   0.000  -0.014   0.005
  0.000  -0.005  -0.014   0.000   0.000   0.000  -0.004  -0.014
 -0.005   0.000  -0.000  -0.015   0.000  -0.005   0.000  -0.000
  0.000  -0.017   0.005   0.000   0.008   0.000  -0.016   0.005
  0.000  -0.004  -0.016   0.000  -0.000   0.000  -0.004  -0.015
 -0.004   0.000  -0.000  -0.017   0.000  -0.004   0.000  -0.000
 total augmentation occupancy for first ion, spin component:           1
  2.117   0.000  -0.000   0.015   0.000  -0.596  -0.000  -0.000  -0.043  -0.000  -0.000  -0.000   0.000   0.000   0.021  -0.000
  0.000   2.032   0.057  -0.000  -0.008  -0.000  -0.541  -0.036  -0.000   0.010  -0.096   0.031   0.025   0.035  -0.000  -0.012
 -0.000   0.057   2.778   0.000  -0.008   0.000  -0.036  -1.074   0.000   0.003  -0.059  -0.001   0.030  -0.081   0.000   0.002
  0.015   0.000   0.000   2.007  -0.000  -0.043   0.000   0.000  -0.522  -0.000   0.000  -0.000  -0.000  -0.000   0.031  -0.000
  0.000  -0.008  -0.008   0.000   2.742   0.000   0.010   0.003   0.000  -1.046   0.010  -0.003   0.067   0.002  -0.000   0.004
 -0.596   0.000  -0.000  -0.043   0.000   0.872   0.000   0.000   0.063   0.000  -0.000  -0.000  -0.000   0.000   0.004   0.000
  0.000  -0.541  -0.036  -0.000   0.010  -0.000   0.834   0.028  -0.000  -0.019   0.061  -0.019   0.005  -0.003  -0.000   0.001
  0.000  -0.036  -1.074  -0.000   0.003  -0.000   0.028   1.124   0.000   0.002   0.035   0.001  -0.030   0.073  -0.000   0.004
 -0.043   0.000   0.000  -0.522   0.000   0.063  -0.000   0.000   0.820   0.000  -0.000  -0.000   0.000   0.000   0.000   0.000
  0.000   0.010   0.003   0.000  -1.046   0.000  -0.019   0.002   0.000   1.101  -0.013   0.003  -0.060  -0.001  -0.000   0.006
  0.000  -0.096  -0.059  -0.000   0.010   0.000   0.061   0.035  -0.000  -0.013   2.117  -0.276   0.053   0.059  -0.000  -0.006
 -0.000   0.031  -0.001   0.000  -0.003  -0.000  -0.019   0.001   0.000   0.003  -0.276   0.046   0.000   0.001  -0.000  -0.000
 -0.000   0.025   0.030   0.000   0.067   0.000   0.005  -0.030   0.000  -0.060   0.053   0.000   0.254  -0.001   0.000  -0.026
  0.000   0.035  -0.081  -0.000   0.002   0.000  -0.003   0.073  -0.000  -0.001   0.059   0.001  -0.001   0.258   0.000  -0.002
  0.021  -0.000  -0.000   0.031  -0.000   0.004  -0.000   0.000   0.000   0.000  -0.000  -0.000  -0.000   0.000   0.255   0.000
 -0.000  -0.012   0.002  -0.000   0.004  -0.000   0.001   0.004   0.000   0.006  -0.006  -0.000  -0.026  -0.002   0.000   0.003
  0.000  -0.011  -0.005   0.000   0.000  -0.000   0.001  -0.007  -0.000  -0.000  -0.007  -0.000  -0.002  -0.027   0.000   0.000
 -0.010   0.000  -0.000  -0.012   0.000   0.000   0.000   0.000   0.001   0.000   0.000   0.000  -0.000   0.000  -0.026  -0.000
 total augmentation occupancy for first ion, spin component:           2
  0.410   0.000   0.000   0.079  -0.000  -0.271   0.000   0.000  -0.087   0.000   0.000  -0.000   0.000   0.000   0.029  -0.000
  0.000   0.260   0.162   0.000  -0.107  -0.000  -0.162  -0.114  -0.000   0.039  -0.068   0.002  -0.115   0.040   0.000   0.004
 -0.000   0.162   0.491   0.000   0.003   0.000  -0.113  -0.243   0.000  -0.001   0.073   0.010   0.013   0.050   0.000  -0.000
  0.079   0.000   0.000   0.253   0.000  -0.086   0.000  -0.000  -0.153   0.000   0.000  -0.000   0.000   0.000  -0.120  -0.000
  0.000  -0.107   0.003   0.000   0.597  -0.000   0.040  -0.001  -0.000  -0.295   0.012   0.001   0.016  -0.007  -0.000   0.002
 -0.271   0.000  -0.000  -0.086   0.000   0.155  -0.000   0.000   0.083  -0.000  -0.000   0.000  -0.000  -0.000  -0.015  -0.000
 -0.000  -0.162  -0.113   0.000   0.040   0.000   0.079   0.075  -0.000   0.002   0.047  -0.008   0.071  -0.024  -0.000  -0.007
 -0.000  -0.114  -0.243   0.000  -0.001  -0.000   0.075   0.082   0.000  -0.001  -0.047  -0.001  -0.011  -0.051  -0.000   0.000
 -0.087   0.000  -0.000  -0.153  -0.000   0.083   0.000  -0.000   0.071  -0.000   0.000  -0.000  -0.000  -0.000   0.076   0.000
 -0.000   0.039  -0.001   0.000  -0.295  -0.000   0.002  -0.001   0.000   0.098  -0.007   0.000  -0.014   0.005  -0.000  -0.001
  0.000  -0.068   0.073   0.000   0.012   0.000   0.047  -0.047   0.000  -0.007  -0.047   0.008   0.008  -0.012   0.000   0.001
 -0.000   0.002   0.010   0.000   0.001  -0.000  -0.008  -0.001  -0.000   0.000   0.008  -0.002   0.002  -0.006   0.000  -0.000
  0.000  -0.115   0.013  -0.000   0.016  -0.000   0.071  -0.011   0.000  -0.014   0.008   0.002   0.003   0.009  -0.000  -0.000
  0.000   0.040   0.050   0.000  -0.007  -0.000  -0.024  -0.051  -0.000   0.005  -0.012  -0.006   0.009  -0.011   0.000  -0.001
  0.029   0.000   0.000  -0.120  -0.000  -0.015  -0.000  -0.000   0.076   0.000  -0.000  -0.000  -0.000   0.000  -0.000  -0.000
 -0.000   0.004  -0.000   0.000   0.002  -0.000  -0.007   0.000  -0.000  -0.001   0.001  -0.000  -0.000  -0.001   0.000   0.000
  0.000  -0.002  -0.002   0.000   0.000   0.000   0.003   0.002   0.000  -0.000  -0.004   0.001  -0.001   0.001  -0.000   0.000
 -0.002  -0.000   0.000   0.004  -0.000   0.002   0.000  -0.000  -0.008  -0.000   0.000  -0.000  -0.000  -0.000  -0.000  -0.000


------------------------ aborting loop because EDIFF is reached ----------------------------------------





 total charge     

# of ion       s       p       d       tot
------------------------------------------
    1        0.477   0.422   8.368   9.266
    2        0.477   0.422   8.368   9.266
    3        0.476   0.425   8.378   9.279
    4        0.476   0.425   8.378   9.279
    5        0.476   0.425   8.378   9.279
    6        0.476   0.425   8.378   9.279
    7        0.477   0.422   8.368   9.266
    8        0.477   0.422   8.368   9.266
    9        0.326   0.313   4.923   5.562
   10        0.326   0.313   4.923   5.562
   11        0.324   0.307   4.949   5.580
   12        0.324   0.307   4.949   5.580
   13        0.356   0.363   4.969   5.688
   14        0.356   0.363   4.969   5.688
   15        1.236   1.653   0.282   3.171
   16        1.236   1.653   0.282   3.171
--------------------------------------------------
tot          8.293   8.660  97.230 114.183



 magnetization (x)

# of ion       s       p       d       tot
------------------------------------------
    1       -0.009  -0.006   0.231   0.216
    2       -0.009  -0.006   0.231   0.216
    3       -0.008  -0.004   0.242   0.230
    4       -0.008  -0.004   0.242   0.230
    5       -0.008  -0.004   0.242   0.230
    6       -0.008  -0.004   0.242   0.230
    7       -0.009  -0.006   0.231   0.216
    8       -0.009  -0.006   0.231   0.216
    9       -0.035  -0.031  -3.558  -3.623
   10       -0.035  -0.031  -3.558  -3.623
   11        0.026   0.005   3.585   3.616
   12        0.026   0.005   3.585   3.616
   13        0.023   0.022   3.262   3.306
   14        0.023   0.022   3.262   3.306
   15       -0.007   0.020  -0.005   0.009
   16       -0.007   0.020  -0.005   0.009
--------------------------------------------------
tot         -0.053  -0.009   8.462   8.400

    CHARGE:  cpu time    1.0912: real time    1.0919
    FORLOC:  cpu time    0.0066: real time    0.0066
    FORNL :  cpu time    8.0495: real time    8.0553
    STRESS:  cpu time   24.1917: real time   24.2092
    FORCOR:  cpu time    0.1002: real time    0.1003
    FORHAR:  cpu time    0.0163: real time    0.0163
    MIXING:  cpu time    0.0032: real time    0.0032
    OFIELD:  cpu time    0.0000: real time    0.0000

  FORCE on cell =-STRESS in cart. coord.  units (eV):
  Direction    XX          YY          ZZ          XY          YZ          ZX
  --------------------------------------------------------------------------------------
  Alpha Z   529.12163   529.12163   529.12163
  Ewald   -2798.27372 -3176.69637 -3194.16926     0.00000    -0.00000     0.00000
  Hartree  1262.81616   902.63933   882.39166    -0.00000    -0.00000    -0.00000
  E(xc)    -670.41440  -670.55396  -669.79941     0.00000     0.00000    -0.00000
  Local    -820.57612   -83.19926   -35.83711     0.00000    -0.00000    -0.00000
  n-local  -148.15172  -146.86841  -149.55554    -0.18949     0.08004    -0.12370
  augment  1581.29492  1580.35352  1575.69144    -0.00000     0.00000     0.00000
  Kinetic  1065.29789  1064.36378  1057.99425    -0.03927     1.24728     1.01309
  Fock        0.00000     0.00000     0.00000     0.00000     0.00000     0.00000
  -------------------------------------------------------------------------------------
  Total       1.11465    -0.83975    -4.16233     0.00000     0.00000     0.00000
  in kB       8.39767    -6.32660   -31.35847     0.00000     0.00000     0.00000
  external pressure =       -9.76 kB  Pullay stress =        0.00 kB


 VOLUME and BASIS-vectors are now :
 -----------------------------------------------------------------------------
  energy-cutoff  :      550.00
  volume of cell :      212.66
      direct lattice vectors                 reciprocal lattice vectors
     5.968940928  0.000000000  0.000000000     0.167533908  0.000000000  0.000000000
     0.000000000  5.968940928  0.000000000     0.000000000  0.167533908  0.000000000
     0.000000000  0.000000000  5.968940928     0.000000000  0.000000000  0.167533908

  length of vectors
     5.968940928  5.968940928  5.968940928     0.167533908  0.167533908  0.167533908


 FORCES acting on ions
    electron-ion (+dipol)            ewald-force                    non-local-force                 convergence-correction
 -----------------------------------------------------------------------------------------------
   0.555E-12 0.161E+03 0.167E+03   0.142E-13 -.159E+03 -.164E+03   -.520E-17 -.214E+01 -.252E+01   0.443E-13 0.213E-01 -.146E-01
   0.184E-11 0.161E+03 0.167E+03   0.142E-13 -.159E+03 -.164E+03   -.520E-17 -.214E+01 -.252E+01   0.158E-13 0.213E-01 -.146E-01
   0.561E-12 -.161E+03 0.167E+03   0.568E-13 0.159E+03 -.164E+03   0.347E-17 0.214E+01 -.252E+01   0.235E-14 -.213E-01 -.146E-01
   0.183E-11 -.161E+03 0.167E+03   0.568E-13 0.159E+03 -.164E+03   0.347E-17 0.214E+01 -.252E+01   0.302E-13 -.213E-01 -.146E-01
   0.536E-12 0.161E+03 -.167E+03   0.142E-13 -.159E+03 0.164E+03   -.694E-17 -.214E+01 0.252E+01   0.367E-13 0.213E-01 0.146E-01
   0.184E-11 0.161E+03 -.167E+03   0.142E-13 -.159E+03 0.164E+03   0.000E+00 -.214E+01 0.252E+01   0.708E-13 0.213E-01 0.146E-01
   0.542E-12 -.161E+03 -.167E+03   0.284E-13 0.159E+03 0.164E+03   0.173E-17 0.214E+01 0.252E+01   0.797E-14 -.213E-01 0.146E-01
   0.184E-11 -.161E+03 -.167E+03   0.284E-13 0.159E+03 0.164E+03   0.867E-17 0.214E+01 0.252E+01   0.538E-13 -.213E-01 0.146E-01
   0.240E-12 0.149E-11 0.128E-11   0.119E-13 -.120E-13 0.785E-15   0.000E+00 0.000E+00 -.265E-22   -.159E-13 -.607E-13 -.147E-13
   -.832E-13 0.205E-12 -.344E-13   0.158E-13 -.120E-13 -.561E-13   -.132E-22 0.000E+00 -.397E-22   0.615E-13 -.546E-13 -.258E-13
   -.761E-13 -.287E-13 0.188E-12   -.307E-13 -.153E-13 -.181E-15   0.132E-22 0.000E+00 0.265E-22   0.790E-13 0.265E-13 -.652E-14
   0.229E-12 -.255E-13 0.265E-11   -.210E-13 -.153E-13 -.287E-13   0.132E-22 0.000E+00 0.265E-22   -.544E-13 0.349E-13 -.290E-13
   0.234E-12 0.348E-12 0.119E-11   -.104E-12 -.702E-13 -.717E-13   0.000E+00 0.529E-22 0.000E+00   -.444E-13 -.311E-13 -.833E-14
   -.968E-13 0.195E-12 0.170E-12   -.999E-13 -.703E-13 -.718E-13   0.000E+00 0.000E+00 0.000E+00   0.652E-13 -.284E-13 -.334E-14
   -.213E-13 -.758E-14 -.448E-14   -.501E-15 0.154E-13 0.182E-13   0.106E-21 0.000E+00 0.000E+00   0.167E-13 0.136E-13 0.150E-14
   0.144E-14 0.387E-13 0.561E-12   0.590E-15 0.154E-13 0.181E-13   0.106E-21 0.000E+00 0.000E+00   -.177E-13 0.151E-13 0.456E-14
 -----------------------------------------------------------------------------------------------
   0.997E-11 0.134E-10 0.198E-10   -.158E-15 -.222E-13 -.106E-12   0.225E-21 -.178E-14 -.132E-22   0.352E-12 0.372E-13 -.454E-12


 POSITION                                       TOTAL-FORCE (eV/Angst)
 -----------------------------------------------------------------------------------
      1.49224      1.59162      1.59670         0.000000      0.001642     -0.000191
      4.47671      1.59162      1.59670         0.000000      0.001642     -0.000191
      1.49224      4.37732      1.59670        -0.000000     -0.001642     -0.000191
      4.47671      4.37732      1.59670        -0.000000     -0.001642     -0.000191
      1.49224      1.59162      4.37224        -0.000000      0.001642      0.000191
      4.47671      1.59162      4.37224        -0.000000      0.001642      0.000191
      1.49224      4.37732      4.37224         0.000000     -0.001642      0.000191
      4.47671      4.37732      4.37224         0.000000     -0.001642      0.000191
      2.98447      2.98447      0.00000        -0.000000     -0.000000      0.000000
      0.00000      2.98447      0.00000        -0.000000      0.000000      0.000000
      0.00000      0.00000      2.98447        -0.000000      0.000000      0.000000
      2.98447      0.00000      2.98447        -0.000000      0.000000     -0.000000
      2.98447      2.98447      2.98447        -0.000000      0.000000      0.000000
      0.00000      2.98447      2.98447        -0.000000      0.000000      0.000000
      0.00000      0.00000      0.00000        -0.000000      0.000000      0.000000
      2.98447      0.00000      0.00000        -0.000000      0.000000     -0.000000
 -----------------------------------------------------------------------------------
    total drift:                                0.000000      0.000000      0.000000


--------------------------------------------------------------------------------------------------------



  FREE ENERGIE OF THE ION-ELECTRON SYSTEM (eV)
  ---------------------------------------------------
  free  energy   TOTEN  =      -103.18774507 eV

  energy  without entropy=     -103.18551857  energy(sigma->0) =     -103.18663182



--------------------------------------------------------------------------------------------------------


    POTLOK:  cpu time    0.1363: real time    0.1364


--------------------------------------------------------------------------------------------------------




--------------------------------------------------------------------------------------------------------


  
 reached required accuracy - stopping structural energy minimisation
     LOOP+:  cpu time  586.7130: real time  587.5852
    4ORBIT:  cpu time    0.0000: real time    0.0000



 total charge     

# of ion       s       p       d       tot
------------------------------------------
    1        0.477   0.422   8.368   9.266
    2        0.477   0.422   8.368   9.266
    3        0.476   0.425   8.378   9.279
    4        0.476   0.425   8.378   9.279
    5        0.476   0.425   8.378   9.279
    6        0.476   0.425   8.378   9.279
    7        0.477   0.422   8.368   9.266
    8        0.477   0.422   8.368   9.266
    9        0.326   0.313   4.923   5.562
   10        0.326   0.313   4.923   5.562
   11        0.324   0.307   4.949   5.580
   12        0.324   0.307   4.949   5.580
   13        0.356   0.363   4.969   5.688
   14        0.356   0.363   4.969   5.688
   15        1.236   1.653   0.282   3.171
   16        1.236   1.653   0.282   3.171
--------------------------------------------------
tot          8.293   8.660  97.230 114.183



 magnetization (x)

# of ion       s       p       d       tot
------------------------------------------
    1       -0.009  -0.006   0.231   0.216
    2       -0.009  -0.006   0.231   0.216
    3       -0.008  -0.004   0.242   0.230
    4       -0.008  -0.004   0.242   0.230
    5       -0.008  -0.004   0.242   0.230
    6       -0.008  -0.004   0.242   0.230
    7       -0.009  -0.006   0.231   0.216
    8       -0.009  -0.006   0.231   0.216
    9       -0.035  -0.031  -3.558  -3.623
   10       -0.035  -0.031  -3.558  -3.623
   11        0.026   0.005   3.585   3.616
   12        0.026   0.005   3.585   3.616
   13        0.023   0.022   3.262   3.306
   14        0.023   0.022   3.262   3.306
   15       -0.007   0.020  -0.005   0.009
   16       -0.007   0.020  -0.005   0.009
--------------------------------------------------
tot         -0.053  -0.009   8.462   8.400


 total amount of memory used by VASP MPI-rank0   138913. kBytes
=======================================================================

   base      :      30000. kBytes
   nonlr-proj:       6817. kBytes
   fftplans  :       1269. kBytes
   grid      :       6573. kBytes
   one-center:        497. kBytes
   wavefun   :      93757. kBytes

  
  
 General timing and accounting informations for this job:
 ========================================================
  
                  Total CPU time used (sec):      602.172
                            User time (sec):      572.220
                          System time (sec):       29.952
                         Elapsed time (sec):      604.474
  
                   Maximum memory used (kb):      179632.
                   Average memory used (kb):           0.
  
                          Minor page faults:     11127429
                          Major page faults:           16
                 Voluntary context switches:         2749
