 vasp.5.4.4.18Apr17-6-g9f103f2a35 (build May 21 2018 20:56:50) complex           
 executed on             LinuxGNU date 2021.10.15  15:49:03
 running on   12 total cores
 distrk:  each k-point on   12 cores,    1 groups
 distr:  one band on NCORES_PER_BAND=   1 cores,   12 groups


--------------------------------------------------------------------------------------------------------


 INCAR:
 POTCAR:    PAW_PBE Ni 02Aug2007                  
 POTCAR:    PAW_PBE Mn 06Sep2000                  
 POTCAR:    PAW_PBE In 08Apr2002                  

 ----------------------------------------------------------------------------- 
|                                                                             |
|           W    W    AA    RRRRR   N    N  II  N    N   GGGG   !!!           |
|           W    W   A  A   R    R  NN   N  II  NN   N  G    G  !!!           |
|           W    W  A    A  R    R  N N  N  II  N N  N  G       !!!           |
|           W WW W  AAAAAA  RRRRR   N  N N  II  N  N N  G  GGG   !            |
|           WW  WW  A    A  R   R   N   NN  II  N   NN  G    G                |
|           W    W  A    A  R    R  N    N  II  N    N   GGGG   !!!           |
|                                                                             |
|      For optimal performance we recommend to set                            |
|        NCORE= 4 - approx SQRT( number of cores)                             |
|      NCORE specifies how many cores store one orbital (NPAR=cpu/NCORE).     |
|      This setting can  greatly improve the performance of VASP for DFT.     |
|      The default,   NCORE=1            might be grossly inefficient         |
|      on modern multi-core architectures or massively parallel machines.     |
|      Do your own testing !!!!                                               |
|      Unfortunately you need to use the default for GW and RPA calculations. |
|      (for HF NCORE is supported but not extensively tested yet)             |
|                                                                             |
 ----------------------------------------------------------------------------- 

 POTCAR:    PAW_PBE Ni 02Aug2007                  
   VRHFIN =Ni:                                                                  
   LEXCH  = PE                                                                  
   EATOM  =  1077.6739 eV,   79.2068 Ry                                         
                                                                                
   TITEL  = PAW_PBE Ni 02Aug2007                                                
   LULTRA =        F    use ultrasoft PP ?                                      
   IUNSCR =        1    unscreen: 0-lin 1-nonlin 2-no                           
   RPACOR =    2.000    partial core radius                                     
   POMASS =   58.690; ZVAL   =   10.000    mass and valenz                      
   RCORE  =    2.300    outmost cutoff radius                                   
   RWIGS  =    2.430; RWIGS  =    1.286    wigner-seitz radius (au A)           
   ENMAX  =  269.532; ENMIN  =  202.149 eV                                      
   RCLOC  =    1.201    cutoff for local pot                                    
   LCOR   =        T    correct aug charges                                     
   LPAW   =        T    paw PP                                                  
   EAUG   =  544.565                                                            
   DEXC   =    0.000                                                            
   RMAX   =    2.357    core radius for proj-oper                               
   RAUG   =    1.300    factor for augmentation sphere                          
   RDEP   =    2.390    radius for radial grids                                 
   RDEPT  =    1.838    core radius for aug-charge                              
                                                                                
   Atomic configuration                                                         
    9 entries                                                                   
     n  l   j            E        occ.                                          
     1  0  0.50     -8206.4253   2.0000                                         
     2  0  0.50      -976.1748   2.0000                                         
     2  1  1.50      -839.0571   6.0000                                         
     3  0  0.50      -105.9991   2.0000                                         
     3  1  1.50       -66.4603   6.0000                                         
     3  2  2.50        -4.6458   9.0000                                         
     4  0  0.50        -4.4926   1.0000                                         
     4  1  1.50        -4.0817   0.0000                                         
     4  3  2.50        -1.3606   0.0000                                         
   Description                                                                  
     l       E           TYP  RCUT    TYP  RCUT                                 
     2     -4.6457903     23  2.300                                             
     2     -6.0063729     23  2.300                                             
     0     -4.4925590     23  2.300                                             
     0      5.0102601     23  2.300                                             
     1     -2.7211652     23  2.300                                             
     1     16.5183231     23  2.300                                             
  local pseudopotential read in
  partial core-charges read in
  partial kinetic energy density read in
  atomic valenz-charges read in
  non local Contribution for L=           2  read in
    real space projection operators read in
  non local Contribution for L=           2  read in
    real space projection operators read in
  non local Contribution for L=           0  read in
    real space projection operators read in
  non local Contribution for L=           0  read in
    real space projection operators read in
  non local Contribution for L=           1  read in
    real space projection operators read in
  non local Contribution for L=           1  read in
    real space projection operators read in
    PAW grid and wavefunctions read in

   number of l-projection  operators is LMAX  =           6
   number of lm-projection operators is LMMAX =          18

 POTCAR:    PAW_PBE Mn 06Sep2000                  
   VRHFIN =Mn: d6 s1                                                            
   LEXCH  = PE                                                                  
   EATOM  =   416.7541 eV,   30.6306 Ry                                         
                                                                                
   TITEL  = PAW_PBE Mn 06Sep2000                                                
   LULTRA =        F    use ultrasoft PP ?                                      
   IUNSCR =        1    unscreen: 0-lin 1-nonlin 2-no                           
   RPACOR =    2.000    partial core radius                                     
   POMASS =   54.938; ZVAL   =    7.000    mass and valenz                      
   RCORE  =    2.300    outmost cutoff radius                                   
   RWIGS  =    2.500; RWIGS  =    1.323    wigner-seitz radius (au A)           
   ENMAX  =  269.864; ENMIN  =  202.398 eV                                      
   RCLOC  =    1.725    cutoff for local pot                                    
   LCOR   =        T    correct aug charges                                     
   LPAW   =        T    paw PP                                                  
   EAUG   =  500.711                                                            
   DEXC   =    0.000                                                            
   RMAX   =    2.343    core radius for proj-oper                               
   RAUG   =    1.300    factor for augmentation sphere                          
   RDEP   =    2.338    radius for radial grids                                 
   RDEPT  =    1.911    core radius for aug-charge                              
                                                                                
   Atomic configuration                                                         
    9 entries                                                                   
     n  l   j            E        occ.                                          
     1  0  0.50     -6424.8288   2.0000                                         
     2  0  0.50      -739.1154   2.0000                                         
     2  1  1.50      -625.3949   6.0000                                         
     3  0  0.50       -81.6100   2.0000                                         
     3  1  1.50       -50.4667   6.0000                                         
     3  2  2.50        -3.3745   6.0000                                         
     4  0  0.50        -4.1331   1.0000                                         
     4  1  0.50        -4.0817   0.0000                                         
     4  3  2.50        -1.3606   0.0000                                         
   Description                                                                  
     l       E           TYP  RCUT    TYP  RCUT                                 
     2     -3.3744664     23  2.300                                             
     2     -4.7350490     23  2.300                                             
     0     -4.1331408     23  2.300                                             
     0      7.6656614     23  2.300                                             
     1     -2.7211652     23  2.300                                             
     1     20.4087390     23  2.300                                             
  local pseudopotential read in
  partial core-charges read in
  partial kinetic energy density read in
  atomic valenz-charges read in
  non local Contribution for L=           2  read in
    real space projection operators read in
  non local Contribution for L=           2  read in
    real space projection operators read in
  non local Contribution for L=           0  read in
    real space projection operators read in
  non local Contribution for L=           0  read in
    real space projection operators read in
  non local Contribution for L=           1  read in
    real space projection operators read in
  non local Contribution for L=           1  read in
    real space projection operators read in
    PAW grid and wavefunctions read in

   number of l-projection  operators is LMAX  =           6
   number of lm-projection operators is LMMAX =          18

 POTCAR:    PAW_PBE In 08Apr2002                  
   VRHFIN =In: s2p1                                                             
   LEXCH  = PE                                                                  
   EATOM  =    53.7908 eV,    3.9535 Ry                                         
                                                                                
   TITEL  = PAW_PBE In 08Apr2002                                                
   LULTRA =        F    use ultrasoft PP ?                                      
   IUNSCR =        1    unscreen: 0-lin 1-nonlin 2-no                           
   RPACOR =    2.400    partial core radius                                     
   POMASS =  114.820; ZVAL   =    3.000    mass and valenz                      
   RCORE  =    3.100    outmost cutoff radius                                   
   RWIGS  =    3.170; RWIGS  =    1.677    wigner-seitz radius (au A)           
   ENMAX  =   95.934; ENMIN  =   71.951 eV                                      
   ICORE  =        3    local potential                                         
   LCOR   =        T    correct aug charges                                     
   LPAW   =        T    paw PP                                                  
   EAUG   =  237.125                                                            
   DEXC   =    0.000                                                            
   RMAX   =    3.168    core radius for proj-oper                               
   RAUG   =    1.300    factor for augmentation sphere                          
   RDEP   =    3.187    radius for radial grids                                 
   RDEPT  =    2.711    core radius for aug-charge                              
                                                                                
   Atomic configuration                                                         
   13 entries                                                                   
     n  l   j            E        occ.                                          
     1  0  0.50    -27747.9169   2.0000                                         
     2  0  0.50     -4154.4438   2.0000                                         
     2  1  1.50     -3728.4305   6.0000                                         
     3  0  0.50      -788.3680   2.0000                                         
     3  1  1.50      -648.9215   6.0000                                         
     3  2  2.50      -432.5893  10.0000                                         
     4  0  0.50      -119.6363   2.0000                                         
     4  1  1.50       -78.1086   6.0000                                         
     4  2  2.50       -18.6227  10.0000                                         
     5  0  0.50        -8.2107   2.0000                                         
     5  1  0.50        -2.5185   1.0000                                         
     5  2  2.50        -1.3606   0.0000                                         
     4  3  2.50        -2.7212   0.0000                                         
   Description                                                                  
     l       E           TYP  RCUT    TYP  RCUT                                 
     0     -8.2107306     23  3.100                                             
     0     -6.1485975     23  3.100                                             
     1     -2.5184867     23  3.100                                             
     1      3.2427302     23  3.100                                             
     2     -1.3605826     23  3.100                                             
     3     -1.3605826     23  3.100                                             
  local pseudopotential read in
  partial core-charges read in
  partial kinetic energy density read in
  atomic valenz-charges read in
  non local Contribution for L=           0  read in
    real space projection operators read in
  non local Contribution for L=           0  read in
    real space projection operators read in
  non local Contribution for L=           1  read in
    real space projection operators read in
  non local Contribution for L=           1  read in
    real space projection operators read in
  non local Contribution for L=           2  read in
    real space projection operators read in
    PAW grid and wavefunctions read in

   number of l-projection  operators is LMAX  =           5
   number of lm-projection operators is LMMAX =          13

 Optimization of the real space projectors (new method)

 maximal supplied QI-value         = 16.25
 optimisation between [QCUT,QGAM] = [ 11.86, 23.89] = [ 39.41,159.82] Ry 
 Optimized for a Real-space Cutoff    1.33 Angstroem

   l    n(q)    QCUT    max X(q) W(low)/X(q) W(high)/X(q)  e(spline) 
   2      9    11.864    60.317    0.21E-03    0.51E-03    0.25E-06
   2      9    11.864    55.921    0.21E-03    0.51E-03    0.26E-06
   0      9    11.864    51.690    0.22E-03    0.30E-04    0.17E-06
   0      9    11.864    30.015    0.20E-03    0.28E-04    0.15E-06
   1      9    11.864    18.849    0.76E-04    0.33E-03    0.17E-06
   1      9    11.864    14.624    0.60E-04    0.28E-03    0.15E-06
 Optimization of the real space projectors (new method)

 maximal supplied QI-value         = 16.25
 optimisation between [QCUT,QGAM] = [ 11.86, 23.89] = [ 39.41,159.82] Ry 
 Optimized for a Real-space Cutoff    1.36 Angstroem

   l    n(q)    QCUT    max X(q) W(low)/X(q) W(high)/X(q)  e(spline) 
   2      9    11.864   110.144    0.49E-03    0.50E-03    0.21E-06
   2      9    11.864   103.200    0.49E-03    0.51E-03    0.22E-06
   0     10    11.864    68.437    0.12E-03    0.41E-04    0.21E-06
   0     10    11.864    33.971    0.11E-03    0.36E-04    0.19E-06
   1      9    11.864    17.065    0.24E-03    0.26E-03    0.93E-07
   1      9    11.864    12.540    0.19E-03    0.20E-03    0.80E-07
 Optimization of the real space projectors (new method)

 maximal supplied QI-value         = 12.09
 optimisation between [QCUT,QGAM] = [ 11.97, 23.95] = [ 40.14,160.58] Ry 
 Optimized for a Real-space Cutoff    1.63 Angstroem

   l    n(q)    QCUT    max X(q) W(low)/X(q) W(high)/X(q)  e(spline) 
   0     12    11.973   106.980    0.33E-03    0.16E-03    0.25E-05
   0     12    11.973    81.086    0.37E-03    0.18E-03    0.28E-05
   1     11    11.973    53.097    0.22E-03    0.42E-03    0.40E-05
   1     11    11.973    32.621    0.20E-03    0.40E-03    0.37E-05
   2     11    11.973     8.820    0.30E-03    0.17E-03    0.41E-06
  PAW_PBE Ni 02Aug2007                  :
 energy of atom  1       EATOM=-1077.6739
 kinetic energy error for atom=    0.0027 (will be added to EATOM!!)
  PAW_PBE Mn 06Sep2000                  :
 energy of atom  2       EATOM= -416.7541
 kinetic energy error for atom=    0.0022 (will be added to EATOM!!)
  PAW_PBE In 08Apr2002                  :
 energy of atom  3       EATOM=  -53.7908
 kinetic energy error for atom=    0.0000 (will be added to EATOM!!)


 POSCAR: Ni2MnIn                                 
  positions in direct lattice
  velocities in cartesian coordinates
 exchange correlation table for  LEXCH =        8
   RHO(1)=    0.500       N(1)  =     2000
   RHO(2)=  100.500       N(2)  =     4000



--------------------------------------------------------------------------------------------------------


 ion  position               nearest neighbor table
   1  0.250  0.250  0.250-   9 2.59  10 2.59  11 2.59  12 2.59  13 2.59  14 2.59  15 2.59  16 2.59
                             5 2.99   2 2.99   3 2.99   5 2.99   3 2.99   2 2.99
   2  0.750  0.250  0.250-   9 2.59  10 2.59  11 2.59  12 2.59  13 2.59  14 2.59  15 2.59  16 2.59
                             6 2.99   1 2.99   4 2.99   6 2.99   4 2.99   1 2.99
   3  0.250  0.750  0.250-   9 2.59  10 2.59  11 2.59  12 2.59  13 2.59  14 2.59  15 2.59  16 2.59
                             7 2.99   1 2.99   4 2.99   7 2.99   1 2.99   4 2.99
   4  0.750  0.750  0.250-   9 2.59  10 2.59  11 2.59  12 2.59  13 2.59  14 2.59  15 2.59  16 2.59
                             8 2.99   2 2.99   3 2.99   8 2.99   2 2.99   3 2.99
   5  0.250  0.250  0.750-   9 2.59  10 2.59  11 2.59  12 2.59  13 2.59  14 2.59  15 2.59  16 2.59
                             7 2.99   1 2.99   6 2.99   1 2.99   7 2.99   6 2.99
   6  0.750  0.250  0.750-   9 2.59  10 2.59  11 2.59  12 2.59  13 2.59  14 2.59  15 2.59  16 2.59
                             8 2.99   2 2.99   5 2.99   2 2.99   8 2.99   5 2.99
   7  0.250  0.750  0.750-   9 2.59  10 2.59  11 2.59  12 2.59  13 2.59  14 2.59  15 2.59  16 2.59
                             8 2.99   3 2.99   5 2.99   3 2.99   5 2.99   8 2.99
   8  0.750  0.750  0.750-   9 2.59  10 2.59  11 2.59  12 2.59  13 2.59  14 2.59  15 2.59  16 2.59
                             7 2.99   4 2.99   6 2.99   4 2.99   6 2.99   7 2.99
   9  0.500  0.000  0.000-   1 2.59   2 2.59   3 2.59   4 2.59   5 2.59   6 2.59   7 2.59   8 2.59
                            10 2.99  13 2.99  15 2.99  13 2.99  10 2.99  15 2.99
  10  0.500  0.500  0.000-   1 2.59   2 2.59   3 2.59   4 2.59   5 2.59   6 2.59   7 2.59   8 2.59
                             9 2.99  11 2.99  16 2.99  16 2.99   9 2.99  11 2.99
  11  0.000  0.500  0.000-   1 2.59   2 2.59   3 2.59   4 2.59   5 2.59   6 2.59   7 2.59   8 2.59
                            10 2.99  14 2.99  15 2.99  14 2.99  15 2.99  10 2.99
  12  0.000  0.000  0.500-   1 2.59   2 2.59   3 2.59   4 2.59   5 2.59   6 2.59   7 2.59   8 2.59
                            13 2.99  14 2.99  15 2.99  15 2.99  14 2.99  13 2.99
  13  0.500  0.000  0.500-   1 2.59   2 2.59   3 2.59   4 2.59   5 2.59   6 2.59   7 2.59   8 2.59
                             9 2.99  12 2.99  16 2.99   9 2.99  16 2.99  12 2.99
  14  0.000  0.500  0.500-   1 2.59   2 2.59   3 2.59   4 2.59   5 2.59   6 2.59   7 2.59   8 2.59
                            11 2.99  12 2.99  16 2.99  11 2.99  12 2.99  16 2.99
  15  0.000  0.000  0.000-   1 2.59   2 2.59   3 2.59   4 2.59   5 2.59   6 2.59   7 2.59   8 2.59
                             9 2.99  11 2.99  12 2.99  12 2.99  11 2.99   9 2.99
  16  0.500  0.500  0.500-   1 2.59   2 2.59   3 2.59   4 2.59   5 2.59   6 2.59   7 2.59   8 2.59
                            10 2.99  13 2.99  14 2.99  10 2.99  13 2.99  14 2.99

  LATTYP: Found a simple cubic cell.
 ALAT       =     5.9723268495
  
  Lattice vectors:
  
 A1 = (   5.9723268495,   0.0000000000,   0.0000000000)
 A2 = (   0.0000000000,   5.9723268495,   0.0000000000)
 A3 = (   0.0000000000,   0.0000000000,   5.9723268495)


Analysis of symmetry for initial positions (statically):
=====================================================================
 Subroutine PRICEL returns following result:
 
  LATTYP: Found a body centered cubic cell.
 ALAT       =     5.9723268495
  
  Lattice vectors:
  
 A1 = (   2.9861634247,   2.9861634247,   2.9861634247)
 A2 = (   2.9861634247,  -2.9861634247,  -2.9861634247)
 A3 = (  -2.9861634247,   2.9861634247,  -2.9861634247)
 
   2 primitive cells build up your supercell.
 

 Routine SETGRP: Setting up the symmetry group for a 
 simple cubic supercell.


 Subroutine GETGRP returns: Found 48 space group operations
 (whereof 48 operations were pure point group operations)
 out of a pool of 48 trial point group operations.


The static configuration has the point symmetry O_h .


Analysis of symmetry for dynamics (positions and initial velocities):
=====================================================================
 Subroutine PRICEL returns following result:
 
  LATTYP: Found a body centered cubic cell.
 ALAT       =     5.9723268495
  
  Lattice vectors:
  
 A1 = (   2.9861634247,   2.9861634247,   2.9861634247)
 A2 = (   2.9861634247,  -2.9861634247,  -2.9861634247)
 A3 = (  -2.9861634247,   2.9861634247,  -2.9861634247)
 
   2 primitive cells build up your supercell.
 

 Routine SETGRP: Setting up the symmetry group for a 
 simple cubic supercell.


 Subroutine GETGRP returns: Found 48 space group operations
 (whereof 48 operations were pure point group operations)
 out of a pool of 48 trial point group operations.


The dynamic configuration has the point symmetry O_h .


Analysis of structural, dynamic, and magnetic symmetry:
=====================================================================
 Subroutine PRICEL returns following result:
 
  LATTYP: Found a body centered cubic cell.
 ALAT       =     5.9723268495
  
  Lattice vectors:
  
 A1 = (   2.9861634247,   2.9861634247,   2.9861634247)
 A2 = (   2.9861634247,  -2.9861634247,  -2.9861634247)
 A3 = (  -2.9861634247,   2.9861634247,  -2.9861634247)
 
   2 primitive cells build up your supercell.
 

 Routine SETGRP: Setting up the symmetry group for a 
 simple cubic supercell.


 Subroutine GETGRP returns: Found 48 space group operations
 (whereof 48 operations were pure point group operations)
 out of a pool of 48 trial point group operations.


The magnetic configuration has the point symmetry O_h .


 Subroutine INISYM returns: Found 48 space group operations
 (whereof 48 operations are pure point group operations),
 and found     2 'primitive' translations



 KPOINTS: k-points                                

Automatic generation of k-mesh.
Space group operators:
 irot       det(A)        alpha          n_x          n_y          n_z        tau_x        tau_y        tau_z
    1     1.000000     0.000000     1.000000     0.000000     0.000000     0.000000     0.000000    -0.000000
    2    -1.000000     0.000000     1.000000     0.000000     0.000000     0.000000     0.000000    -0.000000
    3     1.000000   120.000000    -0.577350    -0.577350    -0.577350     0.000000     0.000000    -0.000000
    4    -1.000000   120.000000    -0.577350    -0.577350    -0.577350     0.000000     0.000000    -0.000000
    5     1.000000   120.000000     0.577350     0.577350     0.577350     0.000000     0.000000    -0.000000
    6    -1.000000   120.000000     0.577350     0.577350     0.577350     0.000000     0.000000    -0.000000
    7     1.000000    90.000000     0.000000     0.000000    -1.000000     0.000000     0.000000    -0.000000
    8    -1.000000    90.000000     0.000000     0.000000    -1.000000     0.000000     0.000000    -0.000000
    9     1.000000   180.000000     0.000000     0.707107     0.707107     0.000000     0.000000    -0.000000
   10    -1.000000   180.000000     0.000000     0.707107     0.707107     0.000000     0.000000    -0.000000
   11     1.000000    90.000000     0.000000     1.000000     0.000000     0.000000     0.000000    -0.000000
   12    -1.000000    90.000000     0.000000     1.000000     0.000000     0.000000     0.000000    -0.000000
   13     1.000000   180.000000     0.000000     0.000000     1.000000     0.000000     0.000000    -0.000000
   14    -1.000000   180.000000     0.000000     0.000000     1.000000     0.000000     0.000000    -0.000000
   15     1.000000   120.000000    -0.577350     0.577350     0.577350     0.000000     0.000000    -0.000000
   16    -1.000000   120.000000    -0.577350     0.577350     0.577350     0.000000     0.000000    -0.000000
   17     1.000000   120.000000    -0.577350     0.577350    -0.577350     0.000000     0.000000    -0.000000
   18    -1.000000   120.000000    -0.577350     0.577350    -0.577350     0.000000     0.000000    -0.000000
   19     1.000000    90.000000     0.000000     0.000000     1.000000     0.000000     0.000000    -0.000000
   20    -1.000000    90.000000     0.000000     0.000000     1.000000     0.000000     0.000000    -0.000000
   21     1.000000    90.000000    -1.000000     0.000000     0.000000     0.000000     0.000000    -0.000000
   22    -1.000000    90.000000    -1.000000     0.000000     0.000000     0.000000     0.000000    -0.000000
   23     1.000000   180.000000     0.707107     0.000000     0.707107     0.000000     0.000000    -0.000000
   24    -1.000000   180.000000     0.707107     0.000000     0.707107     0.000000     0.000000    -0.000000
   25     1.000000   120.000000     0.577350    -0.577350     0.577350     0.000000     0.000000    -0.000000
   26    -1.000000   120.000000     0.577350    -0.577350     0.577350     0.000000     0.000000    -0.000000
   27     1.000000   120.000000    -0.577350    -0.577350     0.577350     0.000000     0.000000    -0.000000
   28    -1.000000   120.000000    -0.577350    -0.577350     0.577350     0.000000     0.000000    -0.000000
   29     1.000000   180.000000     1.000000     0.000000     0.000000     0.000000     0.000000    -0.000000
   30    -1.000000   180.000000     1.000000     0.000000     0.000000     0.000000     0.000000    -0.000000
   31     1.000000    90.000000     0.000000    -1.000000     0.000000     0.000000     0.000000    -0.000000
   32    -1.000000    90.000000     0.000000    -1.000000     0.000000     0.000000     0.000000    -0.000000
   33     1.000000   180.000000     0.707107     0.707107     0.000000     0.000000     0.000000    -0.000000
   34    -1.000000   180.000000     0.707107     0.707107     0.000000     0.000000     0.000000    -0.000000
   35     1.000000    90.000000     1.000000     0.000000     0.000000     0.000000     0.000000    -0.000000
   36    -1.000000    90.000000     1.000000     0.000000     0.000000     0.000000     0.000000    -0.000000
   37     1.000000   120.000000     0.577350    -0.577350    -0.577350     0.000000     0.000000    -0.000000
   38    -1.000000   120.000000     0.577350    -0.577350    -0.577350     0.000000     0.000000    -0.000000
   39     1.000000   180.000000     0.000000     1.000000     0.000000     0.000000     0.000000    -0.000000
   40    -1.000000   180.000000     0.000000     1.000000     0.000000     0.000000     0.000000    -0.000000
   41     1.000000   120.000000     0.577350     0.577350    -0.577350     0.000000     0.000000    -0.000000
   42    -1.000000   120.000000     0.577350     0.577350    -0.577350     0.000000     0.000000    -0.000000
   43     1.000000   180.000000     0.000000    -0.707107     0.707107     0.000000     0.000000    -0.000000
   44    -1.000000   180.000000     0.000000    -0.707107     0.707107     0.000000     0.000000    -0.000000
   45     1.000000   180.000000     0.707107    -0.707107     0.000000     0.000000     0.000000    -0.000000
   46    -1.000000   180.000000     0.707107    -0.707107     0.000000     0.000000     0.000000    -0.000000
   47     1.000000   180.000000     0.707107     0.000000    -0.707107     0.000000     0.000000    -0.000000
   48    -1.000000   180.000000     0.707107     0.000000    -0.707107     0.000000     0.000000    -0.000000
 
 Subroutine IBZKPT returns following result:
 ===========================================
 
 Found     20 irreducible k-points:
 
 Following reciprocal coordinates:
            Coordinates               Weight
  0.000000  0.000000  0.000000      1.000000
  0.142857  0.000000  0.000000      6.000000
  0.285714  0.000000  0.000000      6.000000
  0.428571  0.000000  0.000000      6.000000
  0.142857  0.142857  0.000000     12.000000
  0.285714  0.142857  0.000000     24.000000
  0.428571  0.142857  0.000000     24.000000
  0.285714  0.285714  0.000000     12.000000
  0.428571  0.285714  0.000000     24.000000
  0.428571  0.428571  0.000000     12.000000
  0.142857  0.142857  0.142857      8.000000
  0.285714  0.142857  0.142857     24.000000
  0.428571  0.142857  0.142857     24.000000
  0.285714  0.285714  0.142857     24.000000
  0.428571  0.285714  0.142857     48.000000
  0.428571  0.428571  0.142857     24.000000
  0.285714  0.285714  0.285714      8.000000
  0.428571  0.285714  0.285714     24.000000
  0.428571  0.428571  0.285714     24.000000
  0.428571  0.428571  0.428571      8.000000
 
 Following cartesian coordinates:
            Coordinates               Weight
  0.000000  0.000000  0.000000      1.000000
  0.137778  0.000000  0.000000      6.000000
  0.275557  0.000000  0.000000      6.000000
  0.413335  0.000000  0.000000      6.000000
  0.137778  0.137778  0.000000     12.000000
  0.275557  0.137778  0.000000     24.000000
  0.413335  0.137778  0.000000     24.000000
  0.275557  0.275557  0.000000     12.000000
  0.413335  0.275557  0.000000     24.000000
  0.413335  0.413335  0.000000     12.000000
  0.137778  0.137778  0.137778      8.000000
  0.275557  0.137778  0.137778     24.000000
  0.413335  0.137778  0.137778     24.000000
  0.275557  0.275557  0.137778     24.000000
  0.413335  0.275557  0.137778     48.000000
  0.413335  0.413335  0.137778     24.000000
  0.275557  0.275557  0.275557      8.000000
  0.413335  0.275557  0.275557     24.000000
  0.413335  0.413335  0.275557     24.000000
  0.413335  0.413335  0.413335      8.000000
 


--------------------------------------------------------------------------------------------------------




 Dimension of arrays:
   k-points           NKPTS =     20   k-points in BZ     NKDIM =     20   number of bands    NBANDS=     96
   number of dos      NEDOS =    301   number of ions     NIONS =     16
   non local maximal  LDIM  =      6   non local SUM 2l+1 LMDIM =     18
   total plane-waves  NPLWV =  46656
   max r-space proj   IRMAX =   4020   max aug-charges    IRDMAX=  24904
   dimension x,y,z NGX =    36 NGY =   36 NGZ =   36
   dimension x,y,z NGXF=    72 NGYF=   72 NGZF=   72
   support grid    NGXF=    72 NGYF=   72 NGZF=   72
   ions per type =               8   6   2
   NGX,Y,Z   is equivalent  to a cutoff of  10.02, 10.02, 10.02 a.u.
   NGXF,Y,Z  is equivalent  to a cutoff of  20.04, 20.04, 20.04 a.u.

 SYSTEM =  Testrun for NiMnIn                      
 POSCAR =  Ni2MnIn                                 

 Startparameter for this run:
   NWRITE =      2    write-flag & timer
   PREC   = normal    normal or accurate (medium, high low for compatibility)
   ISTART =      0    job   : 0-new  1-cont  2-samecut
   ICHARG =      2    charge: 1-file 2-atom 10-const
   ISPIN  =      2    spin polarized calculation?
   LNONCOLLINEAR =      F non collinear calculations
   LSORBIT =      F    spin-orbit coupling
   INIWAV =      1    electr: 0-lowe 1-rand  2-diag
   LASPH  =      F    aspherical Exc in radial PAW
   METAGGA=      F    non-selfconsistent MetaGGA calc.

 Electronic Relaxation 1
   ENCUT  =  550.0 eV  40.42 Ry    6.36 a.u.  11.42 11.42 11.42*2*pi/ulx,y,z
   ENINI  =  550.0     initial cutoff
   ENAUG  =  544.6 eV  augmentation charge cutoff
   NELM   =     60;   NELMIN=  2; NELMDL= -5     # of ELM steps 
   EDIFF  = 0.1E-04   stopping-criterion for ELM
   LREAL  =      T    real-space projection
   NLSPLINE    = F    spline interpolate recip. space projectors
   LCOMPAT=      F    compatible to vasp.4.4
   GGA_COMPAT  = T    GGA compatible to vasp.4.4-vasp.4.6
   LMAXPAW     = -100 max onsite density
   LMAXMIX     =    2 max onsite mixed and CHGCAR
   VOSKOWN=      0    Vosko Wilk Nusair interpolation
   ROPT   =   -0.00050  -0.00050  -0.00050
 Ionic relaxation
   EDIFFG = -.1E-01   stopping-criterion for IOM
   NSW    =   1000    number of steps for IOM
   NBLOCK =      1;   KBLOCK =   1000    inner block; outer block 
   IBRION =      2    ionic relax: 0-MD 1-quasi-New 2-CG
   NFREE  =      1    steps in history (QN), initial steepest desc. (CG)
   ISIF   =      2    stress and relaxation
   IWAVPR =     11    prediction:  0-non 1-charg 2-wave 3-comb
   ISYM   =      2    0-nonsym 1-usesym 2-fastsym
   LCORR  =      T    Harris-Foulkes like correction to forces

   POTIM  = 0.5000    time-step for ionic-motion
   TEIN   =    0.0    initial temperature
   TEBEG  =    0.0;   TEEND  =   0.0 temperature during run
   SMASS  =  -3.00    Nose mass-parameter (am)
   estimated Nose-frequenzy (Omega)   =  0.10E-29 period in steps =****** mass=  -0.815E-27a.u.
   SCALEE = 1.0000    scale energy and forces
   NPACO  =    256;   APACO  = 16.0  distance and # of slots for P.C.
   PSTRESS=    0.0 pullay stress

  Mass of Ions in am
   POMASS =  58.69 54.94114.82
  Ionic Valenz
   ZVAL   =  10.00  7.00  3.00
  Atomic Wigner-Seitz radii
   RWIGS  =  -1.00 -1.00 -1.00
  virtual crystal weights 
   VCA    =   1.00  1.00  1.00
   NELECT =     128.0000    total number of electrons
   NUPDOWN=      -1.0000    fix difference up-down

 DOS related values:
   EMIN   =  10.00;   EMAX   =-10.00  energy-range for DOS
   EFERMI =   0.00
   ISMEAR =     0;   SIGMA  =   0.02  broadening in eV -4-tet -1-fermi 0-gaus

 Electronic relaxation 2 (details)
   IALGO  =     68    algorithm
   LDIAG  =      T    sub-space diagonalisation (order eigenvalues)
   LSUBROT=      F    optimize rotation matrix (better conditioning)
   TURBO    =      0    0=normal 1=particle mesh
   IRESTART =      0    0=no restart 2=restart with 2 vectors
   NREBOOT  =      0    no. of reboots
   NMIN     =      0    reboot dimension
   EREF     =   0.00    reference energy to select bands
   IMIX   =      4    mixing-type and parameters
     AMIX     =   0.40;   BMIX     =  1.00
     AMIX_MAG =   1.60;   BMIX_MAG =  1.00
     AMIN     =   0.10
     WC   =   100.;   INIMIX=   1;  MIXPRE=   1;  MAXMIX= -45

 Intra band minimization:
   WEIMIN = 0.0010     energy-eigenvalue tresh-hold
   EBREAK =  0.26E-07  absolut break condition
   DEPER  =   0.30     relativ break condition  

   TIME   =   0.40     timestep for ELM

  volume/ion in A,a.u.               =      13.31        89.85
  Fermi-wavevector in a.u.,A,eV,Ry     =   1.381448  2.610558 25.965344  1.908399
  Thomas-Fermi vector in A             =   2.506232

 Write flags
   LWAVE        =      F    write WAVECAR
   LDOWNSAMPLE  =      F    k-point downsampling of WAVECAR
   LCHARG       =      T    write CHGCAR
   LVTOT        =      F    write LOCPOT, total local potential
   LVHAR        =      F    write LOCPOT, Hartree potential only
   LELF         =      F    write electronic localiz. function (ELF)
   LORBIT       =     11    0 simple, 1 ext, 2 COOP (PROOUT), +10 PAW based schemes


 Dipole corrections
   LMONO  =      F    monopole corrections only (constant potential shift)
   LDIPOL =      F    correct potential (dipole corrections)
   IDIPOL =      0    1-x, 2-y, 3-z, 4-all directions 
   EPSILON=  1.0000000 bulk dielectric constant

 Exchange correlation treatment:
   GGA     =    --    GGA type
   LEXCH   =     8    internal setting for exchange type
   VOSKOWN=      0    Vosko Wilk Nusair interpolation
   LHFCALC =     F    Hartree Fock is set to
   LHFONE  =     F    Hartree Fock one center treatment
   AEXX    =    0.0000 exact exchange contribution

 Linear response parameters
   LEPSILON=     F    determine dielectric tensor
   LRPA    =     F    only Hartree local field effects (RPA)
   LNABLA  =     F    use nabla operator in PAW spheres
   LVEL    =     F    velocity operator in full k-point grid
   LINTERFAST=   F  fast interpolation
   KINTER  =     0    interpolate to denser k-point grid
   CSHIFT  =0.1000    complex shift for real part using Kramers Kronig
   OMEGAMAX=  -1.0    maximum frequency
   DEG_THRESHOLD= 0.2000000E-02 threshold for treating states as degnerate
   RTIME   =   -0.100 relaxation time in fs
  (WPLASMAI=    0.000 imaginary part of plasma frequency in eV, 0.658/RTIME)
   DFIELD  = 0.0000000 0.0000000 0.0000000 field for delta impulse in time

 Orbital magnetization related:
   ORBITALMAG=     F  switch on orbital magnetization
   LCHIMAG   =     F  perturbation theory with respect to B field
   DQ        =  0.001000  dq finite difference perturbation B field
   LLRAUG    =     F  two centre corrections for induced B field



--------------------------------------------------------------------------------------------------------


 conjugate gradient relaxation of ions
 charge density and potential will be updated during run
 spin polarized calculation
 RMM-DIIS sequential band-by-band and
  variant of blocked Davidson during initial phase
 perform sub-space diagonalisation
    before iterative eigenvector-optimisation
 modified Broyden-mixing scheme, WC =      100.0
 initial mixing is a Kerker type mixing with AMIX =  0.4000 and BMIX =      1.0000
 Hartree-type preconditioning will be used
 using additional bands           32
 real space projection scheme for non local part
 use partial core corrections
 calculate Harris-corrections to forces   (improved forces if not selfconsistent)
 use gradient corrections 
 use of overlap-Matrix (Vanderbilt PP)
 Gauss-broadening in eV      SIGMA  =   0.02


--------------------------------------------------------------------------------------------------------


  energy-cutoff  :      550.00
  volume of cell :      213.03
      direct lattice vectors                 reciprocal lattice vectors
     5.972326849  0.000000000  0.000000000     0.167438927  0.000000000  0.000000000
     0.000000000  5.972326849  0.000000000     0.000000000  0.167438927  0.000000000
     0.000000000  0.000000000  5.972326849     0.000000000  0.000000000  0.167438927

  length of vectors
     5.972326849  5.972326849  5.972326849     0.167438927  0.167438927  0.167438927



 k-points in units of 2pi/SCALE and weight: k-points                                
   0.00000000  0.00000000  0.00000000       0.003
   0.13777832  0.00000000  0.00000000       0.017
   0.27555663  0.00000000  0.00000000       0.017
   0.41333495  0.00000000  0.00000000       0.017
   0.13777832  0.13777832  0.00000000       0.035
   0.27555663  0.13777832  0.00000000       0.070
   0.41333495  0.13777832  0.00000000       0.070
   0.27555663  0.27555663  0.00000000       0.035
   0.41333495  0.27555663  0.00000000       0.070
   0.41333495  0.41333495  0.00000000       0.035
   0.13777832  0.13777832  0.13777832       0.023
   0.27555663  0.13777832  0.13777832       0.070
   0.41333495  0.13777832  0.13777832       0.070
   0.27555663  0.27555663  0.13777832       0.070
   0.41333495  0.27555663  0.13777832       0.140
   0.41333495  0.41333495  0.13777832       0.070
   0.27555663  0.27555663  0.27555663       0.023
   0.41333495  0.27555663  0.27555663       0.070
   0.41333495  0.41333495  0.27555663       0.070
   0.41333495  0.41333495  0.41333495       0.023

 k-points in reciprocal lattice and weights: k-points                                
   0.00000000  0.00000000  0.00000000       0.003
   0.14285714  0.00000000  0.00000000       0.017
   0.28571429  0.00000000  0.00000000       0.017
   0.42857143  0.00000000  0.00000000       0.017
   0.14285714  0.14285714  0.00000000       0.035
   0.28571429  0.14285714  0.00000000       0.070
   0.42857143  0.14285714  0.00000000       0.070
   0.28571429  0.28571429  0.00000000       0.035
   0.42857143  0.28571429  0.00000000       0.070
   0.42857143  0.42857143  0.00000000       0.035
   0.14285714  0.14285714  0.14285714       0.023
   0.28571429  0.14285714  0.14285714       0.070
   0.42857143  0.14285714  0.14285714       0.070
   0.28571429  0.28571429  0.14285714       0.070
   0.42857143  0.28571429  0.14285714       0.140
   0.42857143  0.42857143  0.14285714       0.070
   0.28571429  0.28571429  0.28571429       0.023
   0.42857143  0.28571429  0.28571429       0.070
   0.42857143  0.42857143  0.28571429       0.070
   0.42857143  0.42857143  0.42857143       0.023

 position of ions in fractional coordinates (direct lattice) 
   0.25000000  0.25000000  0.25000000
   0.75000000  0.25000000  0.25000000
   0.25000000  0.75000000  0.25000000
   0.75000000  0.75000000  0.25000000
   0.25000000  0.25000000  0.75000000
   0.75000000  0.25000000  0.75000000
   0.25000000  0.75000000  0.75000000
   0.75000000  0.75000000  0.75000000
   0.50000000  0.00000000  0.00000000
   0.50000000  0.50000000  0.00000000
   0.00000000  0.50000000  0.00000000
   0.00000000  0.00000000  0.50000000
   0.50000000  0.00000000  0.50000000
   0.00000000  0.50000000  0.50000000
   0.00000000  0.00000000  0.00000000
   0.50000000  0.50000000  0.50000000

 position of ions in cartesian coordinates  (Angst):
   1.49308171  1.49308171  1.49308171
   4.47924514  1.49308171  1.49308171
   1.49308171  4.47924514  1.49308171
   4.47924514  4.47924514  1.49308171
   1.49308171  1.49308171  4.47924514
   4.47924514  1.49308171  4.47924514
   1.49308171  4.47924514  4.47924514
   4.47924514  4.47924514  4.47924514
   2.98616342  0.00000000  0.00000000
   2.98616342  2.98616342  0.00000000
   0.00000000  2.98616342  0.00000000
   0.00000000  0.00000000  2.98616342
   2.98616342  0.00000000  2.98616342
   0.00000000  2.98616342  2.98616342
   0.00000000  0.00000000  0.00000000
   2.98616342  2.98616342  2.98616342



--------------------------------------------------------------------------------------------------------


 k-point  1 :   0.0000 0.0000 0.0000  plane waves:    6235
 k-point  2 :   0.1429 0.0000 0.0000  plane waves:    6231
 k-point  3 :   0.2857 0.0000 0.0000  plane waves:    6247
 k-point  4 :   0.4286 0.0000 0.0000  plane waves:    6270
 k-point  5 :   0.1429 0.1429 0.0000  plane waves:    6268
 k-point  6 :   0.2857 0.1429 0.0000  plane waves:    6253
 k-point  7 :   0.4286 0.1429 0.0000  plane waves:    6240
 k-point  8 :   0.2857 0.2857 0.0000  plane waves:    6240
 k-point  9 :   0.4286 0.2857 0.0000  plane waves:    6239
 k-point 10 :   0.4286 0.4286 0.0000  plane waves:    6238
 k-point 11 :   0.1429 0.1429 0.1429  plane waves:    6244
 k-point 12 :   0.2857 0.1429 0.1429  plane waves:    6246
 k-point 13 :   0.4286 0.1429 0.1429  plane waves:    6249
 k-point 14 :   0.2857 0.2857 0.1429  plane waves:    6254
 k-point 15 :   0.4286 0.2857 0.1429  plane waves:    6227
 k-point 16 :   0.4286 0.4286 0.1429  plane waves:    6243
 k-point 17 :   0.2857 0.2857 0.2857  plane waves:    6247
 k-point 18 :   0.4286 0.2857 0.2857  plane waves:    6233
 k-point 19 :   0.4286 0.4286 0.2857  plane waves:    6220
 k-point 20 :   0.4286 0.4286 0.4286  plane waves:    6203

 maximum and minimum number of plane-waves per node :      6270     6203

 maximum number of plane-waves:      6270
 maximum index in each direction: 
   IXMAX=   11   IYMAX=   11   IZMAX=   11
   IXMIN=  -11   IYMIN=  -11   IZMIN=  -11


 serial   3D FFT for wavefunctions
 parallel 3D FFT for charge:
    minimum data exchange during FFTs selected (reduces bandwidth)


 total amount of memory used by VASP MPI-rank0    78781. kBytes
=======================================================================

   base      :      30000. kBytes
   nonlr-proj:       6835. kBytes
   fftplans  :       1269. kBytes
   grid      :       6573. kBytes
   one-center:        497. kBytes
   wavefun   :      33607. kBytes

     INWAV:  cpu time    0.0000: real time    0.0000
 Broyden mixing: mesh for mixing (old mesh)
   NGX = 23   NGY = 23   NGZ = 23
  (NGX  = 72   NGY  = 72   NGZ  = 72)
  gives a total of  12167 points

 initial charge density was supplied:
 charge density of overlapping atoms calculated
 number of electron     128.0000000 magnetization      24.8000000
 keeping initial charge density in first step


--------------------------------------------------------------------------------------------------------


 Maximum index for non-local projection operator         3887
 Maximum index for augmentation-charges         2103 (set IRDMAX)


--------------------------------------------------------------------------------------------------------


 First call to EWALD:  gamma=   0.297
 Maximum number of real-space cells 3x 3x 3
 Maximum number of reciprocal cells 3x 3x 3

    FEWALD:  cpu time    0.0022: real time    0.0022


--------------------------------------- Iteration      1(   1)  ---------------------------------------


    POTLOK:  cpu time    0.1045: real time    0.1100
    SETDIJ:  cpu time    0.0386: real time    0.0386
     EDDAV:  cpu time   13.6971: real time   13.7137
       DOS:  cpu time    0.0022: real time    0.0022
    --------------------------------------------
      LOOP:  cpu time   13.8424: real time   13.8646

 eigenvalue-minimisations  :  7680
 total energy-change (2. order) : 0.1061412E+04  (-0.5340880E+04)
 number of electron     128.0000000 magnetization      24.8000000
 augmentation part      128.0000000 magnetization      24.8000000

 Free energy of the ion-electron system (eV)
  ---------------------------------------------------
  alpha Z        PSCENC =       528.22220595
  Ewald energy   TEWEN  =     -9384.82947153
  -Hartree energ DENC   =     -3033.09946511
  -exchange      EXHF   =         0.00000000
  -V(xc)+E(xc)   XCENC  =        78.20050227
  PAW double counting   =     10320.96726947   -10647.99417394
  entropy T*S    EENTRO =        -0.00241360
  eigenvalues    EBANDS =      1970.48552327
  atomic energy  EATOM  =     11229.46195210
  Solvation  Ediel_sol  =         0.00000000
  ---------------------------------------------------
  free energy    TOTEN  =      1061.41192887 eV

  energy without entropy =     1061.41434247  energy(sigma->0) =     1061.41313567


--------------------------------------------------------------------------------------------------------




--------------------------------------- Iteration      1(   2)  ---------------------------------------


     EDDAV:  cpu time   13.5756: real time   13.6087
       DOS:  cpu time    0.0022: real time    0.0022
    --------------------------------------------
      LOOP:  cpu time   13.5778: real time   13.6109

 eigenvalue-minimisations  :  7680
 total energy-change (2. order) :-0.1062009E+04  (-0.1009110E+04)
 number of electron     128.0000000 magnetization      24.8000000
 augmentation part      128.0000000 magnetization      24.8000000

 Free energy of the ion-electron system (eV)
  ---------------------------------------------------
  alpha Z        PSCENC =       528.22220595
  Ewald energy   TEWEN  =     -9384.82947153
  -Hartree energ DENC   =     -3033.09946511
  -exchange      EXHF   =         0.00000000
  -V(xc)+E(xc)   XCENC  =        78.20050227
  PAW double counting   =     10320.96726947   -10647.99417394
  entropy T*S    EENTRO =        -0.00248734
  eigenvalues    EBANDS =       908.47648979
  atomic energy  EATOM  =     11229.46195210
  Solvation  Ediel_sol  =         0.00000000
  ---------------------------------------------------
  free energy    TOTEN  =        -0.59717836 eV

  energy without entropy =       -0.59469102  energy(sigma->0) =       -0.59593469


--------------------------------------------------------------------------------------------------------




--------------------------------------- Iteration      1(   3)  ---------------------------------------


     EDDAV:  cpu time   14.0581: real time   14.0733
       DOS:  cpu time    0.0023: real time    0.0023
    --------------------------------------------
      LOOP:  cpu time   14.0604: real time   14.0756

 eigenvalue-minimisations  :  8004
 total energy-change (2. order) :-0.1113032E+03  (-0.9634675E+02)
 number of electron     128.0000000 magnetization      24.8000000
 augmentation part      128.0000000 magnetization      24.8000000

 Free energy of the ion-electron system (eV)
  ---------------------------------------------------
  alpha Z        PSCENC =       528.22220595
  Ewald energy   TEWEN  =     -9384.82947153
  -Hartree energ DENC   =     -3033.09946511
  -exchange      EXHF   =         0.00000000
  -V(xc)+E(xc)   XCENC  =        78.20050227
  PAW double counting   =     10320.96726947   -10647.99417394
  entropy T*S    EENTRO =        -0.00478231
  eigenvalues    EBANDS =       797.17557180
  atomic energy  EATOM  =     11229.46195210
  Solvation  Ediel_sol  =         0.00000000
  ---------------------------------------------------
  free energy    TOTEN  =      -111.90039132 eV

  energy without entropy =     -111.89560901  energy(sigma->0) =     -111.89800016


--------------------------------------------------------------------------------------------------------




--------------------------------------- Iteration      1(   4)  ---------------------------------------


     EDDAV:  cpu time   16.3938: real time   16.4153
       DOS:  cpu time    0.0023: real time    0.0023
    --------------------------------------------
      LOOP:  cpu time   16.3962: real time   16.4176

 eigenvalue-minimisations  :  9684
 total energy-change (2. order) :-0.3652614E+01  (-0.3588079E+01)
 number of electron     128.0000000 magnetization      24.8000000
 augmentation part      128.0000000 magnetization      24.8000000

 Free energy of the ion-electron system (eV)
  ---------------------------------------------------
  alpha Z        PSCENC =       528.22220595
  Ewald energy   TEWEN  =     -9384.82947153
  -Hartree energ DENC   =     -3033.09946511
  -exchange      EXHF   =         0.00000000
  -V(xc)+E(xc)   XCENC  =        78.20050227
  PAW double counting   =     10320.96726947   -10647.99417394
  entropy T*S    EENTRO =        -0.00492387
  eigenvalues    EBANDS =       793.52309893
  atomic energy  EATOM  =     11229.46195210
  Solvation  Ediel_sol  =         0.00000000
  ---------------------------------------------------
  free energy    TOTEN  =      -115.55300575 eV

  energy without entropy =     -115.54808188  energy(sigma->0) =     -115.55054382


--------------------------------------------------------------------------------------------------------




--------------------------------------- Iteration      1(   5)  ---------------------------------------


     EDDAV:  cpu time   16.9420: real time   16.9586
       DOS:  cpu time    0.0024: real time    0.0024
    CHARGE:  cpu time    0.4243: real time    0.4246
    MIXING:  cpu time    0.0016: real time    0.0017
    --------------------------------------------
      LOOP:  cpu time   17.3703: real time   17.3873

 eigenvalue-minimisations  : 10044
 total energy-change (2. order) :-0.1231419E+00  (-0.1230546E+00)
 number of electron     127.9999540 magnetization      22.0050821
 augmentation part       60.5626898 magnetization      13.8422719

 Broyden mixing:
  rms(total) = 0.34434E+01    rms(broyden)= 0.34432E+01
  rms(prec ) = 0.53714E+01
  weight for this iteration     100.00

 Free energy of the ion-electron system (eV)
  ---------------------------------------------------
  alpha Z        PSCENC =       528.22220595
  Ewald energy   TEWEN  =     -9384.82947153
  -Hartree energ DENC   =     -3033.09946511
  -exchange      EXHF   =         0.00000000
  -V(xc)+E(xc)   XCENC  =        78.20050227
  PAW double counting   =     10320.96726947   -10647.99417394
  entropy T*S    EENTRO =        -0.00490036
  eigenvalues    EBANDS =       793.39993348
  atomic energy  EATOM  =     11229.46195210
  Solvation  Ediel_sol  =         0.00000000
  ---------------------------------------------------
  free energy    TOTEN  =      -115.67614768 eV

  energy without entropy =     -115.67124732  energy(sigma->0) =     -115.67369750


--------------------------------------------------------------------------------------------------------




--------------------------------------- Iteration      1(   6)  ---------------------------------------


    POTLOK:  cpu time    0.0964: real time    0.0965
    SETDIJ:  cpu time    0.0354: real time    0.0355
    EDDIAG:  cpu time    1.8900: real time    1.8916
  RMM-DIIS:  cpu time    5.8642: real time    5.8695
    ORTHCH:  cpu time    0.3967: real time    0.3970
       DOS:  cpu time    0.0023: real time    0.0023
    CHARGE:  cpu time    0.4286: real time    0.4289
    MIXING:  cpu time    0.0017: real time    0.0017
    --------------------------------------------
      LOOP:  cpu time    8.7153: real time    8.7230

 eigenvalue-minimisations  :  7680
 total energy-change (2. order) : 0.2990596E+01  (-0.1348556E+02)
 number of electron     127.9999723 magnetization      22.4617878
 augmentation part       70.0165244 magnetization      17.2344451

 Broyden mixing:
  rms(total) = 0.53706E+01    rms(broyden)= 0.53704E+01
  rms(prec ) = 0.78032E+01
  weight for this iteration     100.00

 eigenvalues of (default mixing * dielectric matrix)
  average eigenvalue GAMMA=   0.1677
  0.1677

 Free energy of the ion-electron system (eV)
  ---------------------------------------------------
  alpha Z        PSCENC =       528.22220595
  Ewald energy   TEWEN  =     -9384.82947153
  -Hartree energ DENC   =     -2798.91849333
  -exchange      EXHF   =         0.00000000
  -V(xc)+E(xc)   XCENC  =        66.55174800
  PAW double counting   =     11107.04995376   -11400.40067298
  entropy T*S    EENTRO =        -0.00792667
  eigenvalues    EBANDS =       540.18515345
  atomic energy  EATOM  =     11229.46195210
  Solvation  Ediel_sol  =         0.00000000
  ---------------------------------------------------
  free energy    TOTEN  =      -112.68555125 eV

  energy without entropy =     -112.67762458  energy(sigma->0) =     -112.68158791


--------------------------------------------------------------------------------------------------------




--------------------------------------- Iteration      1(   7)  ---------------------------------------


    POTLOK:  cpu time    0.0961: real time    0.0962
    SETDIJ:  cpu time    0.0353: real time    0.0353
    EDDIAG:  cpu time    1.8958: real time    1.8974
  RMM-DIIS:  cpu time    5.8671: real time    5.8802
    ORTHCH:  cpu time    0.3979: real time    0.3982
       DOS:  cpu time    0.0022: real time    0.0022
    CHARGE:  cpu time    0.4500: real time    0.4505
    MIXING:  cpu time    0.0017: real time    0.0018
    --------------------------------------------
      LOOP:  cpu time    8.7462: real time    8.7619

 eigenvalue-minimisations  :  7680
 total energy-change (2. order) : 0.1349796E+01  (-0.2651599E+01)
 number of electron     127.9999446 magnetization      22.8066595
 augmentation part       71.0556909 magnetization      15.4794000

 Broyden mixing:
  rms(total) = 0.35336E+01    rms(broyden)= 0.35332E+01
  rms(prec ) = 0.55715E+01
  weight for this iteration     100.00

 eigenvalues of (default mixing * dielectric matrix)
  average eigenvalue GAMMA=   0.4237
  0.5449  0.3024

 Free energy of the ion-electron system (eV)
  ---------------------------------------------------
  alpha Z        PSCENC =       528.22220595
  Ewald energy   TEWEN  =     -9384.82947153
  -Hartree energ DENC   =     -2774.03601997
  -exchange      EXHF   =         0.00000000
  -V(xc)+E(xc)   XCENC  =        65.53068137
  PAW double counting   =     11327.33902664   -11621.00567551
  entropy T*S    EENTRO =        -0.00226025
  eigenvalues    EBANDS =       517.98380627
  atomic energy  EATOM  =     11229.46195210
  Solvation  Ediel_sol  =         0.00000000
  ---------------------------------------------------
  free energy    TOTEN  =      -111.33575494 eV

  energy without entropy =     -111.33349469  energy(sigma->0) =     -111.33462482


--------------------------------------------------------------------------------------------------------




--------------------------------------- Iteration      1(   8)  ---------------------------------------


    POTLOK:  cpu time    0.0962: real time    0.0962
    SETDIJ:  cpu time    0.0353: real time    0.0353
    EDDIAG:  cpu time    1.8964: real time    1.8981
  RMM-DIIS:  cpu time    5.8795: real time    5.8847
    ORTHCH:  cpu time    0.3981: real time    0.3984
       DOS:  cpu time    0.0023: real time    0.0023
    CHARGE:  cpu time    0.4227: real time    0.4230
    MIXING:  cpu time    0.0018: real time    0.0018
    --------------------------------------------
      LOOP:  cpu time    8.7321: real time    8.7397

 eigenvalue-minimisations  :  7683
 total energy-change (2. order) : 0.8411766E+01  (-0.1766435E+01)
 number of electron     127.9999617 magnetization      25.1110699
 augmentation part       67.0921407 magnetization      18.4310807

 Broyden mixing:
  rms(total) = 0.12780E+01    rms(broyden)= 0.12777E+01
  rms(prec ) = 0.17708E+01
  weight for this iteration     100.00

 eigenvalues of (default mixing * dielectric matrix)
  average eigenvalue GAMMA=   0.5163
  0.6709  0.6709  0.2070

 Free energy of the ion-electron system (eV)
  ---------------------------------------------------
  alpha Z        PSCENC =       528.22220595
  Ewald energy   TEWEN  =     -9384.82947153
  -Hartree energ DENC   =     -2852.07751320
  -exchange      EXHF   =         0.00000000
  -V(xc)+E(xc)   XCENC  =        71.48547433
  PAW double counting   =     11797.82072760   -12124.64767735
  entropy T*S    EENTRO =        -0.00434877
  eigenvalues    EBANDS =       631.64466226
  atomic energy  EATOM  =     11229.46195210
  Solvation  Ediel_sol  =         0.00000000
  ---------------------------------------------------
  free energy    TOTEN  =      -102.92398861 eV

  energy without entropy =     -102.91963985  energy(sigma->0) =     -102.92181423


--------------------------------------------------------------------------------------------------------




--------------------------------------- Iteration      1(   9)  ---------------------------------------


    POTLOK:  cpu time    0.0962: real time    0.0962
    SETDIJ:  cpu time    0.0354: real time    0.0354
    EDDIAG:  cpu time    1.9064: real time    1.9080
  RMM-DIIS:  cpu time    5.9073: real time    5.9130
    ORTHCH:  cpu time    0.4010: real time    0.4014
       DOS:  cpu time    0.0022: real time    0.0022
    CHARGE:  cpu time    0.4188: real time    0.4190
    MIXING:  cpu time    0.0019: real time    0.0019
    --------------------------------------------
      LOOP:  cpu time    8.7691: real time    8.7771

 eigenvalue-minimisations  :  7683
 total energy-change (2. order) :-0.5538661E-01  (-0.7841163E-01)
 number of electron     127.9999571 magnetization      26.7302348
 augmentation part       68.0253820 magnetization      20.0406117

 Broyden mixing:
  rms(total) = 0.60184E+00    rms(broyden)= 0.60183E+00
  rms(prec ) = 0.75825E+00
  weight for this iteration     100.00

 eigenvalues of (default mixing * dielectric matrix)
  average eigenvalue GAMMA=   0.7982
  1.6990  0.7791  0.5091  0.2056

 Free energy of the ion-electron system (eV)
  ---------------------------------------------------
  alpha Z        PSCENC =       528.22220595
  Ewald energy   TEWEN  =     -9384.82947153
  -Hartree energ DENC   =     -2831.88278415
  -exchange      EXHF   =         0.00000000
  -V(xc)+E(xc)   XCENC  =        75.21719405
  PAW double counting   =     12207.44505595   -12540.67303910
  entropy T*S    EENTRO =        -0.00337025
  eigenvalues    EBANDS =       614.06288178
  atomic energy  EATOM  =     11229.46195210
  Solvation  Ediel_sol  =         0.00000000
  ---------------------------------------------------
  free energy    TOTEN  =      -102.97937522 eV

  energy without entropy =     -102.97600497  energy(sigma->0) =     -102.97769009


--------------------------------------------------------------------------------------------------------




--------------------------------------- Iteration      1(  10)  ---------------------------------------


    POTLOK:  cpu time    0.0970: real time    0.0971
    SETDIJ:  cpu time    0.0354: real time    0.0354
    EDDIAG:  cpu time    1.9153: real time    1.9170
  RMM-DIIS:  cpu time    5.8846: real time    5.8899
    ORTHCH:  cpu time    0.3996: real time    0.3999
       DOS:  cpu time    0.0023: real time    0.0023
    CHARGE:  cpu time    0.4222: real time    0.4226
    MIXING:  cpu time    0.0020: real time    0.0020
    --------------------------------------------
      LOOP:  cpu time    8.7582: real time    8.7661

 eigenvalue-minimisations  :  7706
 total energy-change (2. order) : 0.5468770E-01  (-0.3544107E-01)
 number of electron     127.9999590 magnetization      27.0057677
 augmentation part       67.6726383 magnetization      20.0895098

 Broyden mixing:
  rms(total) = 0.30985E+00    rms(broyden)= 0.30979E+00
  rms(prec ) = 0.32631E+00
  weight for this iteration     100.00

 eigenvalues of (default mixing * dielectric matrix)
  average eigenvalue GAMMA=   0.8329
  1.9236  0.7563  0.7563  0.2057  0.5225

 Free energy of the ion-electron system (eV)
  ---------------------------------------------------
  alpha Z        PSCENC =       528.22220595
  Ewald energy   TEWEN  =     -9384.82947153
  -Hartree energ DENC   =     -2830.81497169
  -exchange      EXHF   =         0.00000000
  -V(xc)+E(xc)   XCENC  =        77.77808891
  PAW double counting   =     12703.55125186   -13046.68777110
  entropy T*S    EENTRO =        -0.00290852
  eigenvalues    EBANDS =       620.39693652
  atomic energy  EATOM  =     11229.46195210
  Solvation  Ediel_sol  =         0.00000000
  ---------------------------------------------------
  free energy    TOTEN  =      -102.92468752 eV

  energy without entropy =     -102.92177900  energy(sigma->0) =     -102.92323326


--------------------------------------------------------------------------------------------------------




--------------------------------------- Iteration      1(  11)  ---------------------------------------


    POTLOK:  cpu time    0.0963: real time    0.0971
    SETDIJ:  cpu time    0.0354: real time    0.0354
    EDDIAG:  cpu time    1.9142: real time    1.9159
  RMM-DIIS:  cpu time    5.8740: real time    5.8841
    ORTHCH:  cpu time    0.4032: real time    0.4035
       DOS:  cpu time    0.0023: real time    0.0023
    CHARGE:  cpu time    0.4204: real time    0.4208
    MIXING:  cpu time    0.0020: real time    0.0020
    --------------------------------------------
      LOOP:  cpu time    8.7478: real time    8.7612

 eigenvalue-minimisations  :  7699
 total energy-change (2. order) :-0.1560498E-01  (-0.2670127E-02)
 number of electron     127.9999588 magnetization      26.8714627
 augmentation part       67.7342024 magnetization      19.8526588

 Broyden mixing:
  rms(total) = 0.15392E+00    rms(broyden)= 0.15392E+00
  rms(prec ) = 0.16415E+00
  weight for this iteration     100.00

 eigenvalues of (default mixing * dielectric matrix)
  average eigenvalue GAMMA=   0.9842
  2.3185  0.2057  1.0992  0.9602  0.7842  0.5374

 Free energy of the ion-electron system (eV)
  ---------------------------------------------------
  alpha Z        PSCENC =       528.22220595
  Ewald energy   TEWEN  =     -9384.82947153
  -Hartree energ DENC   =     -2826.81367131
  -exchange      EXHF   =         0.00000000
  -V(xc)+E(xc)   XCENC  =        77.06992456
  PAW double counting   =     12851.44955726   -13196.17013095
  entropy T*S    EENTRO =        -0.00302231
  eigenvalues    EBANDS =       618.67236374
  atomic energy  EATOM  =     11229.46195210
  Solvation  Ediel_sol  =         0.00000000
  ---------------------------------------------------
  free energy    TOTEN  =      -102.94029250 eV

  energy without entropy =     -102.93727018  energy(sigma->0) =     -102.93878134


--------------------------------------------------------------------------------------------------------




--------------------------------------- Iteration      1(  12)  ---------------------------------------


    POTLOK:  cpu time    0.0964: real time    0.0965
    SETDIJ:  cpu time    0.0355: real time    0.0355
    EDDIAG:  cpu time    1.9144: real time    1.9161
  RMM-DIIS:  cpu time    5.9614: real time    5.9668
    ORTHCH:  cpu time    0.4010: real time    0.4015
       DOS:  cpu time    0.0023: real time    0.0023
    CHARGE:  cpu time    0.4157: real time    0.4161
    MIXING:  cpu time    0.0022: real time    0.0022
    --------------------------------------------
      LOOP:  cpu time    8.8288: real time    8.8369

 eigenvalue-minimisations  :  7728
 total energy-change (2. order) :-0.5158206E-03  (-0.2296264E-02)
 number of electron     127.9999586 magnetization      26.8470574
 augmentation part       67.8300993 magnetization      19.7444826

 Broyden mixing:
  rms(total) = 0.53341E-01    rms(broyden)= 0.53337E-01
  rms(prec ) = 0.71837E-01
  weight for this iteration     100.00

 eigenvalues of (default mixing * dielectric matrix)
  average eigenvalue GAMMA=   0.9857
  2.4168  1.3711  0.2057  0.8527  0.8527  0.5449  0.6560

 Free energy of the ion-electron system (eV)
  ---------------------------------------------------
  alpha Z        PSCENC =       528.22220595
  Ewald energy   TEWEN  =     -9384.82947153
  -Hartree energ DENC   =     -2823.58427920
  -exchange      EXHF   =         0.00000000
  -V(xc)+E(xc)   XCENC  =        76.33782390
  PAW double counting   =     12942.26025955   -13287.35098149
  entropy T*S    EENTRO =        -0.00339006
  eigenvalues    EBANDS =       616.54507248
  atomic energy  EATOM  =     11229.46195210
  Solvation  Ediel_sol  =         0.00000000
  ---------------------------------------------------
  free energy    TOTEN  =      -102.94080832 eV

  energy without entropy =     -102.93741825  energy(sigma->0) =     -102.93911329


--------------------------------------------------------------------------------------------------------




--------------------------------------- Iteration      1(  13)  ---------------------------------------


    POTLOK:  cpu time    0.0964: real time    0.0965
    SETDIJ:  cpu time    0.0356: real time    0.0356
    EDDIAG:  cpu time    1.9158: real time    1.9175
  RMM-DIIS:  cpu time    5.8889: real time    5.8943
    ORTHCH:  cpu time    0.4006: real time    0.4009
       DOS:  cpu time    0.0023: real time    0.0024
    CHARGE:  cpu time    0.4183: real time    0.4185
    MIXING:  cpu time    0.0023: real time    0.0023
    --------------------------------------------
      LOOP:  cpu time    8.7602: real time    8.7680

 eigenvalue-minimisations  :  7725
 total energy-change (2. order) : 0.2259736E-03  (-0.2467245E-03)
 number of electron     127.9999587 magnetization      26.7843842
 augmentation part       67.7864937 magnetization      19.6991555

 Broyden mixing:
  rms(total) = 0.25341E-01    rms(broyden)= 0.25340E-01
  rms(prec ) = 0.27852E-01
  weight for this iteration     100.00

 eigenvalues of (default mixing * dielectric matrix)
  average eigenvalue GAMMA=   1.0543
  2.1721  2.1721  0.2057  0.9522  0.9522  0.7938  0.5437  0.6427

 Free energy of the ion-electron system (eV)
  ---------------------------------------------------
  alpha Z        PSCENC =       528.22220595
  Ewald energy   TEWEN  =     -9384.82947153
  -Hartree energ DENC   =     -2824.41623082
  -exchange      EXHF   =         0.00000000
  -V(xc)+E(xc)   XCENC  =        76.45164749
  PAW double counting   =     12948.17074424   -13293.41329150
  entropy T*S    EENTRO =        -0.00342495
  eigenvalues    EBANDS =       617.41528668
  atomic energy  EATOM  =     11229.46195210
  Solvation  Ediel_sol  =         0.00000000
  ---------------------------------------------------
  free energy    TOTEN  =      -102.94058234 eV

  energy without entropy =     -102.93715740  energy(sigma->0) =     -102.93886987


--------------------------------------------------------------------------------------------------------




--------------------------------------- Iteration      1(  14)  ---------------------------------------


    POTLOK:  cpu time    0.0964: real time    0.0965
    SETDIJ:  cpu time    0.0355: real time    0.0356
    EDDIAG:  cpu time    1.9218: real time    1.9235
  RMM-DIIS:  cpu time    6.1061: real time    6.1117
    ORTHCH:  cpu time    0.4013: real time    0.4017
       DOS:  cpu time    0.0023: real time    0.0023
    CHARGE:  cpu time    0.4234: real time    0.4237
    MIXING:  cpu time    0.0026: real time    0.0026
    --------------------------------------------
      LOOP:  cpu time    8.9894: real time    8.9975

 eigenvalue-minimisations  :  7831
 total energy-change (2. order) :-0.4357256E-04  (-0.4509037E-04)
 number of electron     127.9999587 magnetization      26.8200156
 augmentation part       67.7741872 magnetization      19.7425328

 Broyden mixing:
  rms(total) = 0.13205E-01    rms(broyden)= 0.13205E-01
  rms(prec ) = 0.15165E-01
  weight for this iteration     100.00

 eigenvalues of (default mixing * dielectric matrix)
  average eigenvalue GAMMA=   1.1140
  2.4141  2.4141  0.2057  1.2358  0.9224  0.9224  0.7439  0.5409  0.6265

 Free energy of the ion-electron system (eV)
  ---------------------------------------------------
  alpha Z        PSCENC =       528.22220595
  Ewald energy   TEWEN  =     -9384.82947153
  -Hartree energ DENC   =     -2824.98750745
  -exchange      EXHF   =         0.00000000
  -V(xc)+E(xc)   XCENC  =        76.46598045
  PAW double counting   =     12935.50981084   -13280.48774706
  entropy T*S    EENTRO =        -0.00343795
  eigenvalues    EBANDS =       617.70758875
  atomic energy  EATOM  =     11229.46195210
  Solvation  Ediel_sol  =         0.00000000
  ---------------------------------------------------
  free energy    TOTEN  =      -102.94062592 eV

  energy without entropy =     -102.93718797  energy(sigma->0) =     -102.93890694


--------------------------------------------------------------------------------------------------------




--------------------------------------- Iteration      1(  15)  ---------------------------------------


    POTLOK:  cpu time    0.0965: real time    0.0966
    SETDIJ:  cpu time    0.0356: real time    0.0357
    EDDIAG:  cpu time    1.9219: real time    1.9236
  RMM-DIIS:  cpu time    6.0155: real time    6.0258
    ORTHCH:  cpu time    0.4024: real time    0.4028
       DOS:  cpu time    0.0023: real time    0.0023
    CHARGE:  cpu time    0.4225: real time    0.4228
    MIXING:  cpu time    0.0027: real time    0.0027
    --------------------------------------------
      LOOP:  cpu time    8.8994: real time    8.9123

 eigenvalue-minimisations  :  7797
 total energy-change (2. order) : 0.2960495E-04  (-0.1133512E-04)
 number of electron     127.9999587 magnetization      26.8245226
 augmentation part       67.7803397 magnetization      19.7484887

 Broyden mixing:
  rms(total) = 0.38730E-02    rms(broyden)= 0.38730E-02
  rms(prec ) = 0.39563E-02
  weight for this iteration     100.00

 eigenvalues of (default mixing * dielectric matrix)
  average eigenvalue GAMMA=   1.1187
  2.5661  2.5661  0.2057  1.1288  1.1288  0.8696  0.8696  0.5400  0.6563  0.6563

 Free energy of the ion-electron system (eV)
  ---------------------------------------------------
  alpha Z        PSCENC =       528.22220595
  Ewald energy   TEWEN  =     -9384.82947153
  -Hartree energ DENC   =     -2824.90483826
  -exchange      EXHF   =         0.00000000
  -V(xc)+E(xc)   XCENC  =        76.52346395
  PAW double counting   =     12935.28646857   -13280.23776419
  entropy T*S    EENTRO =        -0.00341990
  eigenvalues    EBANDS =       617.54080700
  atomic energy  EATOM  =     11229.46195210
  Solvation  Ediel_sol  =         0.00000000
  ---------------------------------------------------
  free energy    TOTEN  =      -102.94059631 eV

  energy without entropy =     -102.93717641  energy(sigma->0) =     -102.93888636


--------------------------------------------------------------------------------------------------------




--------------------------------------- Iteration      1(  16)  ---------------------------------------


    POTLOK:  cpu time    0.0976: real time    0.0976
    SETDIJ:  cpu time    0.0357: real time    0.0357
    EDDIAG:  cpu time    1.9255: real time    1.9272
  RMM-DIIS:  cpu time    3.8753: real time    3.8786
    ORTHCH:  cpu time    0.4033: real time    0.4037
       DOS:  cpu time    0.0023: real time    0.0023
    --------------------------------------------
      LOOP:  cpu time    6.3396: real time    6.3450

 eigenvalue-minimisations  :  4623
 total energy-change (2. order) :-0.8114124E-05  (-0.1742535E-05)
 number of electron     127.9999587 magnetization      26.8245226
 augmentation part       67.7803397 magnetization      19.7484887

 Free energy of the ion-electron system (eV)
  ---------------------------------------------------
  alpha Z        PSCENC =       528.22220595
  Ewald energy   TEWEN  =     -9384.82947153
  -Hartree energ DENC   =     -2824.89462235
  -exchange      EXHF   =         0.00000000
  -V(xc)+E(xc)   XCENC  =        76.51086850
  PAW double counting   =     12935.58153257   -13280.53932764
  entropy T*S    EENTRO =        -0.00340796
  eigenvalues    EBANDS =       617.54966594
  atomic energy  EATOM  =     11229.46195210
  Solvation  Ediel_sol  =         0.00000000
  ---------------------------------------------------
  free energy    TOTEN  =      -102.94060443 eV

  energy without entropy =     -102.93719646  energy(sigma->0) =     -102.93890044


--------------------------------------------------------------------------------------------------------




 average (electrostatic) potential at core
  the test charge radii are     0.9791  1.0210  1.4837
  (the norm of the test charge is              1.0000)
       1 -84.0488       2 -84.0488       3 -84.0488       4 -84.0488       5 -84.0488
       6 -84.0488       7 -84.0488       8 -84.0488       9 -42.3736      10 -42.3736
      11 -42.3736      12 -42.3736      13 -42.3736      14 -42.3736      15 -34.6416
      16 -34.6416



 E-fermi :   7.3548     XC(G=0): -12.2592     alpha+bet :-14.0443


 spin component 1

 k-point     1 :       0.0000    0.0000    0.0000
  band No.  band energies     occupation 
      1      -2.0863      1.00000
      2       0.3746      1.00000
      3       2.1015      1.00000
      4       2.1015      1.00000
      5       2.1015      1.00000
      6       2.1267      1.00000
      7       2.7908      1.00000
      8       2.7908      1.00000
      9       2.8172      1.00000
     10       2.8172      1.00000
     11       2.8172      1.00000
     12       2.9129      1.00000
     13       2.9129      1.00000
     14       3.6344      1.00000
     15       3.6344      1.00000
     16       3.9924      1.00000
     17       3.9924      1.00000
     18       3.9924      1.00000
     19       4.1032      1.00000
     20       4.1032      1.00000
     21       4.1032      1.00000
     22       4.1942      1.00000
     23       4.1942      1.00000
     24       4.1942      1.00000
     25       4.2704      1.00000
     26       4.5293      1.00000
     27       4.5293      1.00000
     28       4.5293      1.00000
     29       4.5890      1.00000
     30       4.5890      1.00000
     31       4.5890      1.00000
     32       5.0425      1.00000
     33       5.0425      1.00000
     34       5.0425      1.00000
     35       5.0540      1.00000
     36       5.0540      1.00000
     37       5.1818      1.00000
     38       5.1818      1.00000
     39       5.1818      1.00000
     40       5.2952      1.00000
     41       5.2952      1.00000
     42       5.2952      1.00000
     43       5.4603      1.00000
     44       5.4603      1.00000
     45       5.4603      1.00000
     46       5.5739      1.00000
     47       5.5739      1.00000
     48       5.5739      1.00000
     49       5.6540      1.00000
     50       5.7795      1.00000
     51       5.7795      1.00000
     52       5.7873      1.00000
     53       5.7907      1.00000
     54       5.7907      1.00000
     55       5.7907      1.00000
     56       5.8977      1.00000
     57       5.8977      1.00000
     58       5.9637      1.00000
     59       5.9637      1.00000
     60       5.9637      1.00000
     61       5.9871      1.00000
     62       5.9871      1.00000
     63       6.0078      1.00000
     64       6.0078      1.00000
     65       6.0591      1.00000
     66       6.0591      1.00000
     67       6.0591      1.00000
     68       6.1755      1.00000
     69       6.3559      1.00000
     70       6.4811      1.00000
     71       6.4811      1.00000
     72       6.4811      1.00000
     73       6.6745      1.00000
     74       6.6745      1.00000
     75       6.8089      1.00000
     76       6.8089      1.00000
     77       6.8089      1.00000
     78       6.9069      1.00000
     79       6.9069      1.00000
     80       6.9069      1.00000
     81       7.0432      1.00000
     82       7.0432      1.00000
     83       7.0432      1.00000
     84      10.3824      0.00000
     85      11.8372      0.00000
     86      11.8372      0.00000
     87      11.8372      0.00000
     88      12.4628      0.00000
     89      12.4628      0.00000
     90      13.2301      0.00000
     91      13.2301      0.00000
     92      13.2301      0.00000
     93      13.6827      0.00000
     94      13.6831      0.00000
     95      13.6841      0.00000
     96      13.9850      0.00000

 k-point     2 :       0.1429    0.0000    0.0000
  band No.  band energies     occupation 
      1      -1.9970      1.00000
      2       0.2434      1.00000
      3       1.8477      1.00000
      4       2.1397      1.00000
      5       2.1559      1.00000
      6       2.1559      1.00000
      7       2.8100      1.00000
      8       2.8100      1.00000
      9       2.8497      1.00000
     10       2.8714      1.00000
     11       2.9346      1.00000
     12       2.9520      1.00000
     13       3.0387      1.00000
     14       3.5621      1.00000
     15       3.6625      1.00000
     16       4.0044      1.00000
[...]
     91      13.8931      0.00000
     92      14.0217      0.00000
     93      14.0226      0.00000
     94      14.1530      0.00000
     95      14.1573      0.00000
     96      14.9687      0.00000


--------------------------------------------------------------------------------------------------------


 soft charge-density along one line, spin component           1
         0         1         2         3         4         5         6         7         8         9
 total charge-density along one line

 soft charge-density along one line, spin component           2
         0         1         2         3         4         5         6         7         8         9
 total charge-density along one line

 pseudopotential strength for first ion, spin component:           1
 -1.943  -0.008  -0.013  -0.008  -0.000  -2.565  -0.008  -0.012
 -0.008  -1.943   0.006  -0.008  -0.011  -0.008  -2.565   0.006
 -0.013   0.006  -2.050   0.006   0.000  -0.012   0.006  -2.667
 -0.008  -0.008   0.006  -1.943   0.011  -0.008  -0.008   0.006
 -0.000  -0.011   0.000   0.011  -2.050  -0.000  -0.010   0.000
 -2.565  -0.008  -0.012  -0.008  -0.000  -3.117  -0.008  -0.011
 -0.008  -2.565   0.006  -0.008  -0.010  -0.008  -3.117   0.006
 -0.012   0.006  -2.667   0.006   0.000  -0.011   0.006  -3.215
 -0.008  -0.008   0.006  -2.565   0.010  -0.008  -0.008   0.006
 -0.000  -0.010   0.000   0.010  -2.667  -0.000  -0.010   0.000
 -0.004  -0.004  -0.000  -0.004   0.000  -0.004  -0.004  -0.000
 -0.008  -0.008   0.000  -0.008   0.000  -0.007  -0.007  -0.000
  0.000  -0.000   0.000   0.000   0.000   0.000  -0.000   0.000
  0.000  -0.000  -0.000   0.000  -0.000   0.000  -0.000  -0.000
 -0.000   0.000  -0.000  -0.000   0.000  -0.000   0.000  -0.000
  0.000  -0.000   0.000   0.000   0.000   0.000  -0.000   0.000
  0.000  -0.000  -0.000   0.000  -0.000   0.000  -0.000  -0.000
 -0.000   0.000  -0.000  -0.000   0.000  -0.000   0.000  -0.000
 pseudopotential strength for first ion, spin component:           2
 -1.494  -0.004   0.017  -0.004  -0.000  -2.138  -0.004   0.016
 -0.004  -1.494  -0.008  -0.004   0.014  -0.004  -2.138  -0.008
  0.017  -0.008  -1.392  -0.008   0.000   0.016  -0.008  -2.039
 -0.004  -0.004  -0.008  -1.494  -0.014  -0.004  -0.004  -0.008
 -0.000   0.014   0.000  -0.014  -1.392  -0.000   0.014   0.000
 -2.138  -0.004   0.016  -0.004  -0.000  -2.711  -0.004   0.016
 -0.004  -2.138  -0.008  -0.004   0.014  -0.004  -2.711  -0.008
  0.016  -0.008  -2.039  -0.008   0.000   0.016  -0.008  -2.616
 -0.004  -0.004  -0.008  -2.138  -0.014  -0.004  -0.004  -0.008
 -0.000   0.014   0.000  -0.014  -2.039  -0.000   0.014   0.000
  0.002   0.002   0.000   0.002   0.000   0.002   0.002  -0.000
  0.002   0.002   0.000   0.002   0.000   0.003   0.003   0.000
  0.000  -0.000   0.000   0.000   0.000   0.000  -0.000   0.000
  0.000  -0.000  -0.000   0.000  -0.000   0.000  -0.000  -0.000
 -0.000   0.000  -0.000  -0.000   0.000  -0.000   0.000  -0.000
  0.000  -0.000   0.000   0.000   0.000   0.000  -0.000   0.000
  0.000  -0.000  -0.000   0.000  -0.000   0.000  -0.000  -0.000
 -0.000   0.000  -0.000  -0.000   0.000  -0.000   0.000  -0.000
 total augmentation occupancy for first ion, spin component:           1
  2.192   0.051   0.066   0.051  -0.000  -0.629  -0.061  -0.060  -0.061   0.000  -0.094   0.041  -0.000   0.000   0.000   0.000
  0.051   2.192  -0.033   0.051   0.058  -0.061  -0.629   0.030  -0.061  -0.052  -0.094   0.041  -0.000   0.000   0.000   0.000
  0.066  -0.033   2.689  -0.033   0.000  -0.061   0.030  -1.025   0.030   0.000   0.000  -0.000   0.000  -0.000   0.000   0.000
  0.051   0.051  -0.033   2.192  -0.058  -0.061  -0.061   0.030  -0.629   0.052  -0.094   0.041   0.000   0.000   0.000  -0.000
  0.000   0.058  -0.000  -0.058   2.689   0.000  -0.053  -0.000   0.053  -1.025   0.000  -0.000  -0.000   0.000   0.000   0.000
 -0.629  -0.061  -0.061  -0.061   0.000   0.876   0.068   0.040   0.068  -0.000   0.057  -0.027  -0.000  -0.000   0.000   0.000
 -0.061  -0.629   0.030  -0.061  -0.053   0.068   0.876  -0.020   0.068   0.035   0.057  -0.027  -0.000   0.000  -0.000   0.000
 -0.060   0.030  -1.025   0.030  -0.000   0.040  -0.020   1.075  -0.020   0.000   0.000   0.000   0.000   0.000  -0.000   0.000
 -0.061  -0.061   0.030  -0.629   0.053   0.068   0.068  -0.020   0.876  -0.035   0.057  -0.027  -0.000  -0.000   0.000  -0.000
 -0.000  -0.052  -0.000   0.052  -1.025   0.000   0.035   0.000  -0.035   1.075  -0.000   0.000   0.000   0.000   0.000   0.000
 -0.094  -0.094   0.000  -0.094  -0.000   0.057   0.057   0.000   0.057  -0.000   2.088  -0.277   0.000   0.000   0.000   0.000
  0.041   0.041  -0.000   0.041   0.000  -0.027  -0.027   0.000  -0.027   0.000  -0.277   0.047   0.000   0.000   0.000   0.000
 -0.000  -0.000  -0.000   0.000  -0.000  -0.000  -0.000   0.000   0.000   0.000  -0.000   0.000   0.255   0.001   0.001  -0.026
  0.000   0.000   0.000   0.000   0.000  -0.000   0.000   0.000  -0.000  -0.000  -0.000   0.000   0.001   0.255   0.001  -0.002
  0.000   0.000   0.000   0.000   0.000   0.000   0.000   0.000   0.000  -0.000   0.000   0.000   0.001   0.001   0.255  -0.002
  0.000   0.000   0.000  -0.000   0.000   0.000   0.000   0.000  -0.000   0.000   0.000   0.000  -0.026  -0.002  -0.002   0.003
  0.000   0.000   0.000   0.000   0.000   0.000   0.000   0.000   0.000   0.000   0.000   0.000  -0.002  -0.026  -0.002   0.001
  0.000  -0.000  -0.000   0.000  -0.000  -0.000  -0.000   0.000   0.000  -0.000   0.000   0.000  -0.002  -0.002  -0.026   0.001
 total augmentation occupancy for first ion, spin component:           2
  0.846  -0.111   0.126  -0.111  -0.000  -0.521   0.101  -0.067   0.101   0.000   0.038   0.001   0.000  -0.000  -0.000   0.000
 -0.111   0.846  -0.063  -0.111   0.109   0.101  -0.521   0.034   0.101  -0.058   0.038   0.001   0.000  -0.000  -0.000  -0.000
  0.126  -0.063   1.184  -0.063   0.000  -0.067   0.033  -0.556   0.033   0.000   0.000   0.000  -0.000   0.000  -0.000   0.000
 -0.111  -0.111  -0.063   0.846  -0.109   0.101   0.101   0.034  -0.521   0.058   0.038   0.001  -0.000   0.000   0.000  -0.000
  0.000   0.109   0.000  -0.109   1.184  -0.000  -0.058   0.000   0.058  -0.556   0.000   0.000  -0.000  -0.000   0.000   0.000
 -0.521   0.101  -0.067   0.101  -0.000   0.261  -0.085   0.029  -0.085  -0.000  -0.022   0.004  -0.000   0.000  -0.000   0.000
  0.101  -0.521   0.033   0.101  -0.058  -0.085   0.261  -0.014  -0.085   0.025  -0.022   0.004  -0.000   0.000  -0.000   0.000
 -0.067   0.034  -0.556   0.034   0.000   0.029  -0.014   0.150  -0.014  -0.000  -0.000  -0.000  -0.000  -0.000  -0.000   0.000
  0.101   0.101   0.033  -0.521   0.058  -0.085  -0.085  -0.014   0.261  -0.025  -0.022   0.004  -0.000  -0.000   0.000  -0.000
 -0.000  -0.058   0.000   0.058  -0.556   0.000   0.025  -0.000  -0.025   0.150   0.000   0.000   0.000   0.000   0.000   0.000
  0.038   0.038   0.000   0.038  -0.000  -0.022  -0.022   0.000  -0.022   0.000  -0.127   0.024   0.000  -0.000   0.000   0.000
  0.001   0.001   0.000   0.001   0.000   0.004   0.004  -0.000   0.004   0.000   0.024  -0.004   0.000  -0.000   0.000   0.000
  0.000   0.000  -0.000  -0.000   0.000  -0.000  -0.000  -0.000  -0.000   0.000   0.000   0.000  -0.007  -0.004  -0.004   0.000
 -0.000  -0.000   0.000   0.000   0.000  -0.000   0.000   0.000  -0.000   0.000   0.000   0.000  -0.004  -0.007  -0.004   0.001
 -0.000  -0.000   0.000   0.000  -0.000  -0.000  -0.000  -0.000   0.000  -0.000   0.000   0.000  -0.004  -0.004  -0.007   0.001
  0.000  -0.000  -0.000  -0.000  -0.000   0.000   0.000   0.000  -0.000  -0.000  -0.000  -0.000   0.000   0.001   0.001   0.000
 -0.000   0.000   0.000  -0.000   0.000   0.000   0.000  -0.000   0.000   0.000   0.000  -0.000   0.001   0.000   0.001  -0.000
 -0.000   0.000  -0.000  -0.000  -0.000  -0.000  -0.000   0.000  -0.000  -0.000  -0.000  -0.000   0.001   0.001   0.000  -0.000


------------------------ aborting loop because EDIFF is reached ----------------------------------------





 total charge     

# of ion       s       p       d       tot
------------------------------------------
    1        0.466   0.427   8.363   9.255
    2        0.463   0.424   8.386   9.273
    3        0.465   0.423   8.366   9.254
    4        0.466   0.423   8.341   9.231
    5        0.466   0.423   8.341   9.231
    6        0.465   0.423   8.366   9.254
    7        0.463   0.424   8.386   9.273
    8        0.466   0.427   8.363   9.255
    9        0.318   0.305   4.935   5.558
   10        0.336   0.316   4.944   5.596
   11        0.324   0.315   4.932   5.571
   12        0.336   0.316   4.944   5.596
   13        0.324   0.315   4.932   5.571
   14        0.318   0.305   4.935   5.558
   15        1.272   1.807   0.355   3.434
   16        1.272   1.807   0.355   3.434
--------------------------------------------------
tot          8.222   8.878  97.246 114.346



 magnetization (x)

# of ion       s       p       d       tot
------------------------------------------
    1       -0.022  -0.010   0.629   0.597
    2       -0.022  -0.015   0.603   0.566
    3       -0.021  -0.016   0.588   0.550
    4       -0.019  -0.014   0.606   0.573
    5       -0.019  -0.014   0.606   0.573
    6       -0.021  -0.016   0.588   0.550
    7       -0.022  -0.015   0.603   0.566
    8       -0.022  -0.010   0.629   0.597
    9        0.024   0.019   3.601   3.644
   10        0.025   0.015   3.533   3.572
   11        0.024   0.014   3.593   3.631
   12        0.025   0.015   3.533   3.572
   13        0.024   0.014   3.593   3.631
   14        0.024   0.019   3.601   3.644
   15        0.004  -0.106  -0.017  -0.119
   16        0.004  -0.106  -0.017  -0.119
--------------------------------------------------
tot         -0.015  -0.227  26.270  26.028

    CHARGE:  cpu time    0.4305: real time    0.4308
    FORLOC:  cpu time    0.0080: real time    0.0080
    FORNL :  cpu time    2.7794: real time    2.7819
    STRESS:  cpu time    8.1488: real time    8.1561
    FORCOR:  cpu time    0.0998: real time    0.0999
    FORHAR:  cpu time    0.0167: real time    0.0167
    MIXING:  cpu time    0.0028: real time    0.0028
    OFIELD:  cpu time    0.0000: real time    0.0000

  FORCE on cell =-STRESS in cart. coord.  units (eV):
  Direction    XX          YY          ZZ          XY          YZ          ZX
  --------------------------------------------------------------------------------------
  Alpha Z   528.22221   528.22221   528.22221
  Ewald   -3128.28586 -3128.28586 -3128.28586    -0.00000     0.00000     0.00000
  Hartree   941.67747   941.67747   941.67747    -0.00000    -0.00000    -0.00000
  E(xc)    -671.73749  -671.73749  -671.73749    -0.00000     0.00000    -0.00000
  Local    -165.86912  -165.86912  -165.86912    -0.00000    -0.00000     0.00000
  n-local  -146.89828  -146.98966  -141.02658     0.42475    -0.71309    -0.01268
  augment  1580.75914  1580.75914  1580.75914    -0.00000    -0.00000     0.00000
  Kinetic  1047.85040  1058.41633  1076.16451     1.06607    -1.11452     0.34786
  Fock        0.00000     0.00000     0.00000     0.00000     0.00000     0.00000
  -------------------------------------------------------------------------------------
  Total       0.60524     0.60524     0.60524     0.00000    -0.00000     0.00000
  in kB       4.55209     4.55209     4.55209     0.00000    -0.00000     0.00000
  external pressure =        4.55 kB  Pullay stress =        0.00 kB


 VOLUME and BASIS-vectors are now :
 -----------------------------------------------------------------------------
  energy-cutoff  :      550.00
  volume of cell :      213.03
      direct lattice vectors                 reciprocal lattice vectors
     5.972326849  0.000000000  0.000000000     0.167438927  0.000000000  0.000000000
     0.000000000  5.972326849  0.000000000     0.000000000  0.167438927  0.000000000
     0.000000000  0.000000000  5.972326849     0.000000000  0.000000000  0.167438927

  length of vectors
     5.972326849  5.972326849  5.972326849     0.167438927  0.167438927  0.167438927


 FORCES acting on ions
    electron-ion (+dipol)            ewald-force                    non-local-force                 convergence-correction
 -----------------------------------------------------------------------------------------------
   0.107E-11 0.572E-12 0.811E-12   -.107E-13 -.391E-13 -.284E-13   0.000E+00 -.455E-23 0.000E+00   -.963E-15 0.139E-13 -.268E-12
   -.145E-12 -.685E-12 -.147E-11   -.924E-13 -.462E-13 -.178E-13   -.265E-22 0.132E-22 0.397E-22   0.185E-13 0.429E-13 -.322E-12
   0.671E-12 0.343E-11 0.775E-12   -.782E-13 -.604E-13 -.107E-13   0.265E-22 -.529E-22 -.199E-22   0.482E-13 0.241E-13 -.241E-12
   0.692E-12 0.412E-11 -.814E-11   -.462E-13 -.426E-13 0.355E-14   0.199E-22 -.199E-22 0.000E+00   0.153E-13 0.623E-15 -.262E-12
   0.662E-12 0.556E-12 0.206E-11   -.462E-13 -.711E-13 0.178E-13   0.397E-22 0.394E-22 -.397E-22   0.399E-15 0.272E-13 0.169E-12
   0.587E-12 -.127E-11 0.606E-11   -.639E-13 -.888E-13 0.178E-13   -.265E-22 -.232E-22 -.132E-22   0.326E-13 0.167E-13 0.249E-12
   0.474E-12 0.390E-11 0.180E-11   -.924E-13 -.462E-13 -.178E-13   -.199E-22 0.132E-22 0.662E-23   -.926E-15 0.121E-13 0.163E-12
   0.176E-11 -.374E-11 0.645E-11   -.249E-13 -.391E-13 -.142E-13   0.000E+00 -.331E-22 0.000E+00   0.362E-13 0.154E-13 0.227E-12
   0.199E-12 -.103E-13 -.960E-12   0.740E-13 0.527E-13 0.696E-13   0.529E-22 0.000E+00 0.000E+00   -.292E-15 0.371E-13 0.586E-13
   0.200E-12 0.171E-12 0.207E-12   0.754E-13 0.611E-13 -.293E-13   0.000E+00 -.265E-22 -.529E-22   0.112E-13 -.330E-13 0.467E-13
   -.280E-13 0.206E-12 -.497E-13   0.661E-13 0.592E-13 -.147E-14   0.000E+00 0.662E-22 0.000E+00   0.369E-14 -.597E-13 0.358E-13
   -.257E-13 -.459E-13 0.189E-12   0.722E-13 0.675E-13 -.538E-13   0.000E+00 0.000E+00 0.529E-22   0.395E-13 0.120E-13 -.341E-13
   0.194E-12 -.280E-13 0.875E-12   0.702E-13 0.719E-13 0.142E-14   -.265E-22 -.265E-22 -.265E-22   -.212E-13 0.136E-13 -.492E-13
   -.218E-13 0.204E-12 0.176E-12   0.695E-13 0.615E-13 0.298E-13   -.529E-22 0.000E+00 0.000E+00   0.429E-13 -.258E-13 -.391E-13
   -.259E-13 -.156E-13 -.891E-14   0.128E-13 -.551E-14 -.162E-14   0.000E+00 0.000E+00 0.000E+00   0.404E-16 0.128E-13 0.131E-13
   -.371E-13 -.258E-12 -.641E-12   0.139E-13 0.295E-14 0.316E-14   0.000E+00 0.000E+00 0.827E-24   -.755E-14 -.822E-14 -.148E-13
 -----------------------------------------------------------------------------------------------
   0.623E-11 0.711E-11 0.814E-11   -.631E-15 -.620E-13 -.319E-13   -.132E-22 -.545E-22 -.521E-22   0.218E-12 0.102E-12 -.267E-12


 POSITION                                       TOTAL-FORCE (eV/Angst)
 -----------------------------------------------------------------------------------
      1.49308      1.49308      1.49308         0.000000      0.000000      0.000000
      4.47925      1.49308      1.49308         0.000000     -0.000000      0.000000
      1.49308      4.47925      1.49308         0.000000     -0.000000      0.000000
      4.47925      4.47925      1.49308         0.000000     -0.000000     -0.000000
      1.49308      1.49308      4.47925        -0.000000     -0.000000      0.000000
      4.47925      1.49308      4.47925        -0.000000     -0.000000      0.000000
      1.49308      4.47925      4.47925        -0.000000      0.000000     -0.000000
      4.47925      4.47925      4.47925         0.000000     -0.000000     -0.000000
      2.98616      0.00000      0.00000         0.000000     -0.000000     -0.000000
      2.98616      2.98616      0.00000         0.000000     -0.000000     -0.000000
      0.00000      2.98616      0.00000        -0.000000     -0.000000     -0.000000
      0.00000      0.00000      2.98616         0.000000     -0.000000      0.000000
      2.98616      0.00000      2.98616        -0.000000     -0.000000      0.000000
      0.00000      2.98616      2.98616        -0.000000      0.000000      0.000000
      0.00000      0.00000      0.00000         0.000000     -0.000000      0.000000
      2.98616      2.98616      2.98616        -0.000000     -0.000000     -0.000000
 -----------------------------------------------------------------------------------
    total drift:                                0.000000      0.000000      0.000000


--------------------------------------------------------------------------------------------------------



  FREE ENERGIE OF THE ION-ELECTRON SYSTEM (eV)
  ---------------------------------------------------
  free  energy   TOTEN  =      -102.94060443 eV

  energy  without entropy=     -102.93719646  energy(sigma->0) =     -102.93890044



--------------------------------------------------------------------------------------------------------


    POTLOK:  cpu time    0.1324: real time    0.1325


--------------------------------------------------------------------------------------------------------




--------------------------------------------------------------------------------------------------------


  
 reached required accuracy - stopping structural energy minimisation
     LOOP+:  cpu time  182.2821: real time  182.5891
    4ORBIT:  cpu time    0.0000: real time    0.0000



 total charge     

# of ion       s       p       d       tot
------------------------------------------
    1        0.466   0.427   8.363   9.255
    2        0.463   0.424   8.386   9.273
    3        0.465   0.423   8.366   9.254
    4        0.466   0.423   8.341   9.231
    5        0.466   0.423   8.341   9.231
    6        0.465   0.423   8.366   9.254
    7        0.463   0.424   8.386   9.273
    8        0.466   0.427   8.363   9.255
    9        0.318   0.305   4.935   5.558
   10        0.336   0.316   4.944   5.596
   11        0.324   0.315   4.932   5.571
   12        0.336   0.316   4.944   5.596
   13        0.324   0.315   4.932   5.571
   14        0.318   0.305   4.935   5.558
   15        1.272   1.807   0.355   3.434
   16        1.272   1.807   0.355   3.434
--------------------------------------------------
tot          8.222   8.878  97.246 114.346



 magnetization (x)

# of ion       s       p       d       tot
------------------------------------------
    1       -0.022  -0.010   0.629   0.597
    2       -0.022  -0.015   0.603   0.566
    3       -0.021  -0.016   0.588   0.550
    4       -0.019  -0.014   0.606   0.573
    5       -0.019  -0.014   0.606   0.573
    6       -0.021  -0.016   0.588   0.550
    7       -0.022  -0.015   0.603   0.566
    8       -0.022  -0.010   0.629   0.597
    9        0.024   0.019   3.601   3.644
   10        0.025   0.015   3.533   3.572
   11        0.024   0.014   3.593   3.631
   12        0.025   0.015   3.533   3.572
   13        0.024   0.014   3.593   3.631
   14        0.024   0.019   3.601   3.644
   15        0.004  -0.106  -0.017  -0.119
   16        0.004  -0.106  -0.017  -0.119
--------------------------------------------------
tot         -0.015  -0.227  26.270  26.028


 total amount of memory used by VASP MPI-rank0    78781. kBytes
=======================================================================

   base      :      30000. kBytes
   nonlr-proj:       6835. kBytes
   fftplans  :       1269. kBytes
   grid      :       6573. kBytes
   one-center:        497. kBytes
   wavefun   :      33607. kBytes

  
  
 General timing and accounting informations for this job:
 ========================================================
  
                  Total CPU time used (sec):      189.497
                            User time (sec):      179.295
                          System time (sec):       10.203
                         Elapsed time (sec):      190.284
  
                   Maximum memory used (kb):      101024.
                   Average memory used (kb):           0.
  
                          Minor page faults:      4640316
                          Major page faults:            7
                 Voluntary context switches:         2274
