 vasp.5.4.4.18Apr17-6-g9f103f2a35 (build May 21 2018 20:56:50) complex           
 executed on             LinuxGNU date 2021.10.15  15:48:33
 running on   12 total cores
 distrk:  each k-point on   12 cores,    1 groups
 distr:  one band on NCORES_PER_BAND=   1 cores,   12 groups


--------------------------------------------------------------------------------------------------------


 INCAR:
 POTCAR:    PAW_PBE Ni 02Aug2007                  
 POTCAR:    PAW_PBE Mn 06Sep2000                  
 POTCAR:    PAW_PBE In 08Apr2002                  

 ----------------------------------------------------------------------------- 
|                                                                             |
|           W    W    AA    RRRRR   N    N  II  N    N   GGGG   !!!           |
|           W    W   A  A   R    R  NN   N  II  NN   N  G    G  !!!           |
|           W    W  A    A  R    R  N N  N  II  N N  N  G       !!!           |
|           W WW W  AAAAAA  RRRRR   N  N N  II  N  N N  G  GGG   !            |
|           WW  WW  A    A  R   R   N   NN  II  N   NN  G    G                |
|           W    W  A    A  R    R  N    N  II  N    N   GGGG   !!!           |
|                                                                             |
|      For optimal performance we recommend to set                            |
|        NCORE= 4 - approx SQRT( number of cores)                             |
|      NCORE specifies how many cores store one orbital (NPAR=cpu/NCORE).     |
|      This setting can  greatly improve the performance of VASP for DFT.     |
|      The default,   NCORE=1            might be grossly inefficient         |
|      on modern multi-core architectures or massively parallel machines.     |
|      Do your own testing !!!!                                               |
|      Unfortunately you need to use the default for GW and RPA calculations. |
|      (for HF NCORE is supported but not extensively tested yet)             |
|                                                                             |
 ----------------------------------------------------------------------------- 

 POTCAR:    PAW_PBE Ni 02Aug2007                  
   VRHFIN =Ni:                                                                  
   LEXCH  = PE                                                                  
   EATOM  =  1077.6739 eV,   79.2068 Ry                                         
                                                                                
   TITEL  = PAW_PBE Ni 02Aug2007                                                
   LULTRA =        F    use ultrasoft PP ?                                      
   IUNSCR =        1    unscreen: 0-lin 1-nonlin 2-no                           
   RPACOR =    2.000    partial core radius                                     
   POMASS =   58.690; ZVAL   =   10.000    mass and valenz                      
   RCORE  =    2.300    outmost cutoff radius                                   
   RWIGS  =    2.430; RWIGS  =    1.286    wigner-seitz radius (au A)           
   ENMAX  =  269.532; ENMIN  =  202.149 eV                                      
   RCLOC  =    1.201    cutoff for local pot                                    
   LCOR   =        T    correct aug charges                                     
   LPAW   =        T    paw PP                                                  
   EAUG   =  544.565                                                            
   DEXC   =    0.000                                                            
   RMAX   =    2.357    core radius for proj-oper                               
   RAUG   =    1.300    factor for augmentation sphere                          
   RDEP   =    2.390    radius for radial grids                                 
   RDEPT  =    1.838    core radius for aug-charge                              
                                                                                
   Atomic configuration                                                         
    9 entries                                                                   
     n  l   j            E        occ.                                          
     1  0  0.50     -8206.4253   2.0000                                         
     2  0  0.50      -976.1748   2.0000                                         
     2  1  1.50      -839.0571   6.0000                                         
     3  0  0.50      -105.9991   2.0000                                         
     3  1  1.50       -66.4603   6.0000                                         
     3  2  2.50        -4.6458   9.0000                                         
     4  0  0.50        -4.4926   1.0000                                         
     4  1  1.50        -4.0817   0.0000                                         
     4  3  2.50        -1.3606   0.0000                                         
   Description                                                                  
     l       E           TYP  RCUT    TYP  RCUT                                 
     2     -4.6457903     23  2.300                                             
     2     -6.0063729     23  2.300                                             
     0     -4.4925590     23  2.300                                             
     0      5.0102601     23  2.300                                             
     1     -2.7211652     23  2.300                                             
     1     16.5183231     23  2.300                                             
  local pseudopotential read in
  partial core-charges read in
  partial kinetic energy density read in
  atomic valenz-charges read in
  non local Contribution for L=           2  read in
    real space projection operators read in
  non local Contribution for L=           2  read in
    real space projection operators read in
  non local Contribution for L=           0  read in
    real space projection operators read in
  non local Contribution for L=           0  read in
    real space projection operators read in
  non local Contribution for L=           1  read in
    real space projection operators read in
  non local Contribution for L=           1  read in
    real space projection operators read in
    PAW grid and wavefunctions read in

   number of l-projection  operators is LMAX  =           6
   number of lm-projection operators is LMMAX =          18

 POTCAR:    PAW_PBE Mn 06Sep2000                  
   VRHFIN =Mn: d6 s1                                                            
   LEXCH  = PE                                                                  
   EATOM  =   416.7541 eV,   30.6306 Ry                                         
                                                                                
   TITEL  = PAW_PBE Mn 06Sep2000                                                
   LULTRA =        F    use ultrasoft PP ?                                      
   IUNSCR =        1    unscreen: 0-lin 1-nonlin 2-no                           
   RPACOR =    2.000    partial core radius                                     
   POMASS =   54.938; ZVAL   =    7.000    mass and valenz                      
   RCORE  =    2.300    outmost cutoff radius                                   
   RWIGS  =    2.500; RWIGS  =    1.323    wigner-seitz radius (au A)           
   ENMAX  =  269.864; ENMIN  =  202.398 eV                                      
   RCLOC  =    1.725    cutoff for local pot                                    
   LCOR   =        T    correct aug charges                                     
   LPAW   =        T    paw PP                                                  
   EAUG   =  500.711                                                            
   DEXC   =    0.000                                                            
   RMAX   =    2.343    core radius for proj-oper                               
   RAUG   =    1.300    factor for augmentation sphere                          
   RDEP   =    2.338    radius for radial grids                                 
   RDEPT  =    1.911    core radius for aug-charge                              
                                                                                
   Atomic configuration                                                         
    9 entries                                                                   
     n  l   j            E        occ.                                          
     1  0  0.50     -6424.8288   2.0000                                         
     2  0  0.50      -739.1154   2.0000                                         
     2  1  1.50      -625.3949   6.0000                                         
     3  0  0.50       -81.6100   2.0000                                         
     3  1  1.50       -50.4667   6.0000                                         
     3  2  2.50        -3.3745   6.0000                                         
     4  0  0.50        -4.1331   1.0000                                         
     4  1  0.50        -4.0817   0.0000                                         
     4  3  2.50        -1.3606   0.0000                                         
   Description                                                                  
     l       E           TYP  RCUT    TYP  RCUT                                 
     2     -3.3744664     23  2.300                                             
     2     -4.7350490     23  2.300                                             
     0     -4.1331408     23  2.300                                             
     0      7.6656614     23  2.300                                             
     1     -2.7211652     23  2.300                                             
     1     20.4087390     23  2.300                                             
  local pseudopotential read in
  partial core-charges read in
  partial kinetic energy density read in
  atomic valenz-charges read in
  non local Contribution for L=           2  read in
    real space projection operators read in
  non local Contribution for L=           2  read in
    real space projection operators read in
  non local Contribution for L=           0  read in
    real space projection operators read in
  non local Contribution for L=           0  read in
    real space projection operators read in
  non local Contribution for L=           1  read in
    real space projection operators read in
  non local Contribution for L=           1  read in
    real space projection operators read in
    PAW grid and wavefunctions read in

   number of l-projection  operators is LMAX  =           6
   number of lm-projection operators is LMMAX =          18

 POTCAR:    PAW_PBE In 08Apr2002                  
   VRHFIN =In: s2p1                                                             
   LEXCH  = PE                                                                  
   EATOM  =    53.7908 eV,    3.9535 Ry                                         
                                                                                
   TITEL  = PAW_PBE In 08Apr2002                                                
   LULTRA =        F    use ultrasoft PP ?                                      
   IUNSCR =        1    unscreen: 0-lin 1-nonlin 2-no                           
   RPACOR =    2.400    partial core radius                                     
   POMASS =  114.820; ZVAL   =    3.000    mass and valenz                      
   RCORE  =    3.100    outmost cutoff radius                                   
   RWIGS  =    3.170; RWIGS  =    1.677    wigner-seitz radius (au A)           
   ENMAX  =   95.934; ENMIN  =   71.951 eV                                      
   ICORE  =        3    local potential                                         
   LCOR   =        T    correct aug charges                                     
   LPAW   =        T    paw PP                                                  
   EAUG   =  237.125                                                            
   DEXC   =    0.000                                                            
   RMAX   =    3.168    core radius for proj-oper                               
   RAUG   =    1.300    factor for augmentation sphere                          
   RDEP   =    3.187    radius for radial grids                                 
   RDEPT  =    2.711    core radius for aug-charge                              
                                                                                
   Atomic configuration                                                         
   13 entries                                                                   
     n  l   j            E        occ.                                          
     1  0  0.50    -27747.9169   2.0000                                         
     2  0  0.50     -4154.4438   2.0000                                         
     2  1  1.50     -3728.4305   6.0000                                         
     3  0  0.50      -788.3680   2.0000                                         
     3  1  1.50      -648.9215   6.0000                                         
     3  2  2.50      -432.5893  10.0000                                         
     4  0  0.50      -119.6363   2.0000                                         
     4  1  1.50       -78.1086   6.0000                                         
     4  2  2.50       -18.6227  10.0000                                         
     5  0  0.50        -8.2107   2.0000                                         
     5  1  0.50        -2.5185   1.0000                                         
     5  2  2.50        -1.3606   0.0000                                         
     4  3  2.50        -2.7212   0.0000                                         
   Description                                                                  
     l       E           TYP  RCUT    TYP  RCUT                                 
     0     -8.2107306     23  3.100                                             
     0     -6.1485975     23  3.100                                             
     1     -2.5184867     23  3.100                                             
     1      3.2427302     23  3.100                                             
     2     -1.3605826     23  3.100                                             
     3     -1.3605826     23  3.100                                             
  local pseudopotential read in
  partial core-charges read in
  partial kinetic energy density read in
  atomic valenz-charges read in
  non local Contribution for L=           0  read in
    real space projection operators read in
  non local Contribution for L=           0  read in
    real space projection operators read in
  non local Contribution for L=           1  read in
    real space projection operators read in
  non local Contribution for L=           1  read in
    real space projection operators read in
  non local Contribution for L=           2  read in
    real space projection operators read in
    PAW grid and wavefunctions read in

   number of l-projection  operators is LMAX  =           5
   number of lm-projection operators is LMMAX =          13

 Optimization of the real space projectors (new method)

 maximal supplied QI-value         = 16.25
 optimisation between [QCUT,QGAM] = [ 11.86, 23.89] = [ 39.41,159.82] Ry 
 Optimized for a Real-space Cutoff    1.33 Angstroem

   l    n(q)    QCUT    max X(q) W(low)/X(q) W(high)/X(q)  e(spline) 
   2      9    11.864    60.317    0.21E-03    0.51E-03    0.25E-06
   2      9    11.864    55.921    0.21E-03    0.51E-03    0.26E-06
   0      9    11.864    51.690    0.22E-03    0.30E-04    0.17E-06
   0      9    11.864    30.015    0.20E-03    0.28E-04    0.15E-06
   1      9    11.864    18.849    0.76E-04    0.33E-03    0.17E-06
   1      9    11.864    14.624    0.60E-04    0.28E-03    0.15E-06
 Optimization of the real space projectors (new method)

 maximal supplied QI-value         = 16.25
 optimisation between [QCUT,QGAM] = [ 11.86, 23.89] = [ 39.41,159.82] Ry 
 Optimized for a Real-space Cutoff    1.36 Angstroem

   l    n(q)    QCUT    max X(q) W(low)/X(q) W(high)/X(q)  e(spline) 
   2      9    11.864   110.144    0.49E-03    0.50E-03    0.21E-06
   2      9    11.864   103.200    0.49E-03    0.51E-03    0.22E-06
   0     10    11.864    68.437    0.12E-03    0.41E-04    0.21E-06
   0     10    11.864    33.971    0.11E-03    0.36E-04    0.19E-06
   1      9    11.864    17.065    0.24E-03    0.26E-03    0.93E-07
   1      9    11.864    12.540    0.19E-03    0.20E-03    0.80E-07
 Optimization of the real space projectors (new method)

 maximal supplied QI-value         = 12.09
 optimisation between [QCUT,QGAM] = [ 11.97, 23.95] = [ 40.14,160.58] Ry 
 Optimized for a Real-space Cutoff    1.63 Angstroem

   l    n(q)    QCUT    max X(q) W(low)/X(q) W(high)/X(q)  e(spline) 
   0     12    11.973   106.980    0.33E-03    0.16E-03    0.25E-05
   0     12    11.973    81.086    0.37E-03    0.18E-03    0.28E-05
   1     11    11.973    53.097    0.22E-03    0.42E-03    0.40E-05
   1     11    11.973    32.621    0.20E-03    0.40E-03    0.37E-05
   2     11    11.973     8.820    0.30E-03    0.17E-03    0.41E-06
  PAW_PBE Ni 02Aug2007                  :
 energy of atom  1       EATOM=-1077.6739
 kinetic energy error for atom=    0.0027 (will be added to EATOM!!)
  PAW_PBE Mn 06Sep2000                  :
 energy of atom  2       EATOM= -416.7541
 kinetic energy error for atom=    0.0022 (will be added to EATOM!!)
  PAW_PBE In 08Apr2002                  :
 energy of atom  3       EATOM=  -53.7908
 kinetic energy error for atom=    0.0000 (will be added to EATOM!!)


 POSCAR: Ni2MnIn                                 
  positions in direct lattice
  velocities in cartesian coordinates
 exchange correlation table for  LEXCH =        8
   RHO(1)=    0.500       N(1)  =     2000
   RHO(2)=  100.500       N(2)  =     4000



--------------------------------------------------------------------------------------------------------


 ion  position               nearest neighbor table
   1  0.250  0.250  0.267-  12 2.44  11 2.44  13 2.44  14 2.44   9 2.55  15 2.55  16 2.55  10 2.55
                             5 2.69   3 2.87   2 2.87   3 2.89   2 2.89   5 3.07
   2  0.750  0.250  0.267-  12 2.44  11 2.44  13 2.44  14 2.44   9 2.55  15 2.55  16 2.55  10 2.55
                             6 2.69   4 2.87   1 2.87   4 2.89   1 2.89   6 3.07
   3  0.250  0.750  0.267-  12 2.44  11 2.44  13 2.44  14 2.44   9 2.55  15 2.55  16 2.55  10 2.55
                             7 2.69   4 2.87   1 2.87   1 2.89   4 2.89   7 3.07
   4  0.750  0.750  0.267-  12 2.44  11 2.44  13 2.44  14 2.44   9 2.55  15 2.55  16 2.55  10 2.55
                             8 2.69   3 2.87   2 2.87   3 2.89   2 2.89   8 3.07
   5  0.250  0.250  0.733-  12 2.44  11 2.44  13 2.44  14 2.44   9 2.55  15 2.55  16 2.55  10 2.55
                             1 2.69   6 2.87   7 2.87   7 2.89   6 2.89   1 3.07
   6  0.750  0.250  0.733-  12 2.44  11 2.44  13 2.44  14 2.44   9 2.55  15 2.55  16 2.55  10 2.55
                             2 2.69   5 2.87   8 2.87   8 2.89   5 2.89   2 3.07
   7  0.250  0.750  0.733-  12 2.44  11 2.44  13 2.44  14 2.44   9 2.55  15 2.55  16 2.55  10 2.55
                             3 2.69   5 2.87   8 2.87   5 2.89   8 2.89   3 3.07
   8  0.750  0.750  0.733-  12 2.44  11 2.44  13 2.44  14 2.44   9 2.55  15 2.55  16 2.55  10 2.55
                             4 2.69   6 2.87   7 2.87   7 2.89   6 2.89   4 3.07
   9  0.500  0.000  0.000-   1 2.55   2 2.55   3 2.55   4 2.55   5 2.55   6 2.55   7 2.55   8 2.55
                            12 2.88  15 2.88  16 2.88  12 2.88  16 2.88  15 2.88
  10  0.000  0.500  0.000-   1 2.55   2 2.55   3 2.55   4 2.55   5 2.55   6 2.55   7 2.55   8 2.55
                            14 2.88  15 2.88  16 2.88  14 2.88  15 2.88  16 2.88
  11  0.000  0.000  0.500-   1 2.44   2 2.44   3 2.44   4 2.44   5 2.44   6 2.44   7 2.44   8 2.44
                            12 2.88  14 2.88  15 2.88  15 2.88  14 2.88  12 2.88
  12  0.500  0.000  0.500-   1 2.44   2 2.44   3 2.44   4 2.44   5 2.44   6 2.44   7 2.44   8 2.44
                             9 2.88  11 2.88  13 2.88   9 2.88  13 2.88  11 2.88
  13  0.500  0.500  0.500-   1 2.44   2 2.44   3 2.44   4 2.44   5 2.44   6 2.44   7 2.44   8 2.44
                            12 2.88  14 2.88  16 2.88  16 2.88  12 2.88  14 2.88
  14  0.000  0.500  0.500-   1 2.44   2 2.44   3 2.44   4 2.44   5 2.44   6 2.44   7 2.44   8 2.44
                            10 2.88  11 2.88  13 2.88  10 2.88  11 2.88  13 2.88
  15  0.000  0.000  0.000-   1 2.55   2 2.55   3 2.55   4 2.55   5 2.55   6 2.55   7 2.55   8 2.55
                             9 2.88  10 2.88  11 2.88  11 2.88  10 2.88   9 2.88
  16  0.500  0.500  0.000-   1 2.55   2 2.55   3 2.55   4 2.55   5 2.55   6 2.55   7 2.55   8 2.55
                             9 2.88  10 2.88  13 2.88  13 2.88   9 2.88  10 2.88

  LATTYP: Found a simple cubic cell.
 ALAT       =     5.7600000000
  
  Lattice vectors:
  
 A1 = (   5.7600000000,   0.0000000000,   0.0000000000)
 A2 = (   0.0000000000,   5.7600000000,   0.0000000000)
 A3 = (   0.0000000000,   0.0000000000,   5.7600000000)


Analysis of symmetry for initial positions (statically):
=====================================================================
 Subroutine PRICEL returns:
 Original cell was already a primitive cell.
 

 Routine SETGRP: Setting up the symmetry group for a 
 simple cubic supercell.


 Subroutine GETGRP returns: Found 16 space group operations
 (whereof  8 operations were pure point group operations)
 out of a pool of 48 trial point group operations.


The static configuration has the point symmetry D_2h.
 The point group associated with its full space group is D_4h.


Analysis of symmetry for dynamics (positions and initial velocities):
=====================================================================
 Subroutine PRICEL returns:
 Original cell was already a primitive cell.
 

 Routine SETGRP: Setting up the symmetry group for a 
 simple cubic supercell.


 Subroutine GETGRP returns: Found 16 space group operations
 (whereof  8 operations were pure point group operations)
 out of a pool of 48 trial point group operations.


The dynamic configuration has the point symmetry D_2h.
 The point group associated with its full space group is D_4h.


Analysis of structural, dynamic, and magnetic symmetry:
=====================================================================
 Subroutine PRICEL returns:
 Original cell was already a primitive cell.
 

 Routine SETGRP: Setting up the symmetry group for a 
 simple cubic supercell.


 Subroutine GETGRP returns: Found 16 space group operations
 (whereof  8 operations were pure point group operations)
 out of a pool of 48 trial point group operations.


The magnetic configuration has the point symmetry D_2h.
 The point group associated with its full space group is D_4h.


 Subroutine INISYM returns: Found 16 space group operations
 (whereof  8 operations are pure point group operations),
 and found     1 'primitive' translations



 KPOINTS: k-points                                

Automatic generation of k-mesh.
Space group operators:
 irot       det(A)        alpha          n_x          n_y          n_z        tau_x        tau_y        tau_z
    1     1.000000     0.000001     1.000000     0.000000     0.000000     0.000000     0.000000     0.000000
    2    -1.000000     0.000001     1.000000     0.000000     0.000000     0.000000     0.000000     0.000000
    3     1.000000   180.000000     0.000000     0.000000     1.000000     0.000000     0.000000     0.000000
    4    -1.000000   180.000000     0.000000     0.000000     1.000000     0.000000     0.000000     0.000000
    5     1.000000   180.000000     1.000000     0.000000     0.000000     0.000000     0.000000     0.000000
    6    -1.000000   180.000000     1.000000     0.000000     0.000000     0.000000     0.000000     0.000000
    7     1.000000   180.000000     0.000000     1.000000     0.000000     0.000000     0.000000     0.000000
    8    -1.000000   180.000000     0.000000     1.000000     0.000000     0.000000     0.000000     0.000000
    9     1.000000    90.000000     0.000000     0.000000    -1.000000     0.500000     0.500000     0.000000
   10    -1.000000    90.000000     0.000000     0.000000    -1.000000     0.500000     0.500000     0.000000
   11     1.000000    90.000000     0.000000     0.000000     1.000000     0.500000     0.500000     0.000000
   12    -1.000000    90.000000     0.000000     0.000000     1.000000     0.500000     0.500000     0.000000
   13     1.000000   180.000000     0.707107     0.707107     0.000000     0.500000     0.500000     0.000000
   14    -1.000000   180.000000     0.707107     0.707107     0.000000     0.500000     0.500000     0.000000
   15     1.000000   180.000000     0.707107    -0.707107     0.000000     0.500000     0.500000     0.000000
   16    -1.000000   180.000000     0.707107    -0.707107     0.000000     0.500000     0.500000     0.000000
 
 Subroutine IBZKPT returns following result:
 ===========================================
 
 Found     40 irreducible k-points:
 
 Following reciprocal coordinates:
            Coordinates               Weight
  0.000000  0.000000  0.000000      1.000000
  0.142857  0.000000  0.000000      4.000000
  0.285714  0.000000  0.000000      4.000000
  0.428571  0.000000  0.000000      4.000000
  0.142857  0.142857  0.000000      4.000000
  0.285714  0.142857  0.000000      8.000000
  0.428571  0.142857  0.000000      8.000000
  0.285714  0.285714  0.000000      4.000000
  0.428571  0.285714  0.000000      8.000000
  0.428571  0.428571  0.000000      4.000000
  0.000000  0.000000  0.142857      2.000000
  0.142857  0.000000  0.142857      8.000000
  0.285714  0.000000  0.142857      8.000000
  0.428571  0.000000  0.142857      8.000000
  0.142857  0.142857  0.142857      8.000000
  0.285714  0.142857  0.142857     16.000000
  0.428571  0.142857  0.142857     16.000000
  0.285714  0.285714  0.142857      8.000000
  0.428571  0.285714  0.142857     16.000000
  0.428571  0.428571  0.142857      8.000000
  0.000000  0.000000  0.285714      2.000000
  0.142857  0.000000  0.285714      8.000000
  0.285714  0.000000  0.285714      8.000000
  0.428571  0.000000  0.285714      8.000000
  0.142857  0.142857  0.285714      8.000000
  0.285714  0.142857  0.285714     16.000000
  0.428571  0.142857  0.285714     16.000000
  0.285714  0.285714  0.285714      8.000000
  0.428571  0.285714  0.285714     16.000000
  0.428571  0.428571  0.285714      8.000000
  0.000000  0.000000  0.428571      2.000000
  0.142857  0.000000  0.428571      8.000000
  0.285714  0.000000  0.428571      8.000000
  0.428571  0.000000  0.428571      8.000000
  0.142857  0.142857  0.428571      8.000000
  0.285714  0.142857  0.428571     16.000000
  0.428571  0.142857  0.428571     16.000000
  0.285714  0.285714  0.428571      8.000000
  0.428571  0.285714  0.428571     16.000000
  0.428571  0.428571  0.428571      8.000000
 
 Following cartesian coordinates:
            Coordinates               Weight
  0.000000  0.000000  0.000000      1.000000
  0.142857  0.000000  0.000000      4.000000
  0.285714  0.000000  0.000000      4.000000
  0.428571  0.000000  0.000000      4.000000
  0.142857  0.142857  0.000000      4.000000
  0.285714  0.142857  0.000000      8.000000
  0.428571  0.142857  0.000000      8.000000
  0.285714  0.285714  0.000000      4.000000
  0.428571  0.285714  0.000000      8.000000
  0.428571  0.428571  0.000000      4.000000
  0.000000  0.000000  0.142857      2.000000
  0.142857  0.000000  0.142857      8.000000
  0.285714  0.000000  0.142857      8.000000
  0.428571  0.000000  0.142857      8.000000
  0.142857  0.142857  0.142857      8.000000
  0.285714  0.142857  0.142857     16.000000
  0.428571  0.142857  0.142857     16.000000
  0.285714  0.285714  0.142857      8.000000
  0.428571  0.285714  0.142857     16.000000
  0.428571  0.428571  0.142857      8.000000
  0.000000  0.000000  0.285714      2.000000
  0.142857  0.000000  0.285714      8.000000
  0.285714  0.000000  0.285714      8.000000
  0.428571  0.000000  0.285714      8.000000
  0.142857  0.142857  0.285714      8.000000
  0.285714  0.142857  0.285714     16.000000
  0.428571  0.142857  0.285714     16.000000
  0.285714  0.285714  0.285714      8.000000
  0.428571  0.285714  0.285714     16.000000
  0.428571  0.428571  0.285714      8.000000
  0.000000  0.000000  0.428571      2.000000
  0.142857  0.000000  0.428571      8.000000
  0.285714  0.000000  0.428571      8.000000
  0.428571  0.000000  0.428571      8.000000
  0.142857  0.142857  0.428571      8.000000
  0.285714  0.142857  0.428571     16.000000
  0.428571  0.142857  0.428571     16.000000
  0.285714  0.285714  0.428571      8.000000
  0.428571  0.285714  0.428571     16.000000
  0.428571  0.428571  0.428571      8.000000
 


--------------------------------------------------------------------------------------------------------




 Dimension of arrays:
   k-points           NKPTS =     40   k-points in BZ     NKDIM =     40   number of bands    NBANDS=     84
   number of dos      NEDOS =    301   number of ions     NIONS =     16
   non local maximal  LDIM  =      6   non local SUM 2l+1 LMDIM =     18
   total plane-waves  NPLWV =  46656
   max r-space proj   IRMAX =   4476   max aug-charges    IRDMAX=  27738
   dimension x,y,z NGX =    36 NGY =   36 NGZ =   36
   dimension x,y,z NGXF=    72 NGYF=   72 NGZF=   72
   support grid    NGXF=    72 NGYF=   72 NGZF=   72
   ions per type =               8   6   2
   NGX,Y,Z   is equivalent  to a cutoff of  10.39, 10.39, 10.39 a.u.
   NGXF,Y,Z  is equivalent  to a cutoff of  20.78, 20.78, 20.78 a.u.

 SYSTEM =  Testrun for NiMnIn                      
 POSCAR =  Ni2MnIn                                 

 Startparameter for this run:
   NWRITE =      2    write-flag & timer
   PREC   = normal    normal or accurate (medium, high low for compatibility)
   ISTART =      0    job   : 0-new  1-cont  2-samecut
   ICHARG =      2    charge: 1-file 2-atom 10-const
   ISPIN  =      2    spin polarized calculation?
   LNONCOLLINEAR =      F non collinear calculations
   LSORBIT =      F    spin-orbit coupling
   INIWAV =      1    electr: 0-lowe 1-rand  2-diag
   LASPH  =      F    aspherical Exc in radial PAW
   METAGGA=      F    non-selfconsistent MetaGGA calc.

 Electronic Relaxation 1
   ENCUT  =  550.0 eV  40.42 Ry    6.36 a.u.  11.01 11.01 11.01*2*pi/ulx,y,z
   ENINI  =  550.0     initial cutoff
   ENAUG  =  544.6 eV  augmentation charge cutoff
   NELM   =     60;   NELMIN=  2; NELMDL= -5     # of ELM steps 
   EDIFF  = 0.1E-04   stopping-criterion for ELM
   LREAL  =      T    real-space projection
   NLSPLINE    = F    spline interpolate recip. space projectors
   LCOMPAT=      F    compatible to vasp.4.4
   GGA_COMPAT  = T    GGA compatible to vasp.4.4-vasp.4.6
   LMAXPAW     = -100 max onsite density
   LMAXMIX     =    2 max onsite mixed and CHGCAR
   VOSKOWN=      0    Vosko Wilk Nusair interpolation
   ROPT   =   -0.00050  -0.00050  -0.00050
 Ionic relaxation
   EDIFFG = -.1E-01   stopping-criterion for IOM
   NSW    =   1000    number of steps for IOM
   NBLOCK =      1;   KBLOCK =   1000    inner block; outer block 
   IBRION =      2    ionic relax: 0-MD 1-quasi-New 2-CG
   NFREE  =      1    steps in history (QN), initial steepest desc. (CG)
   ISIF   =      2    stress and relaxation
   IWAVPR =     11    prediction:  0-non 1-charg 2-wave 3-comb
   ISYM   =      2    0-nonsym 1-usesym 2-fastsym
   LCORR  =      T    Harris-Foulkes like correction to forces

   POTIM  = 0.5000    time-step for ionic-motion
   TEIN   =    0.0    initial temperature
   TEBEG  =    0.0;   TEEND  =   0.0 temperature during run
   SMASS  =  -3.00    Nose mass-parameter (am)
   estimated Nose-frequenzy (Omega)   =  0.10E-29 period in steps =****** mass=  -0.758E-27a.u.
   SCALEE = 1.0000    scale energy and forces
   NPACO  =    256;   APACO  = 16.0  distance and # of slots for P.C.
   PSTRESS=    0.0 pullay stress

  Mass of Ions in am
   POMASS =  58.69 54.94114.82
  Ionic Valenz
   ZVAL   =  10.00  7.00  3.00
  Atomic Wigner-Seitz radii
   RWIGS  =  -1.00 -1.00 -1.00
  virtual crystal weights 
   VCA    =   1.00  1.00  1.00
   NELECT =     128.0000    total number of electrons
   NUPDOWN=      -1.0000    fix difference up-down

 DOS related values:
   EMIN   =  10.00;   EMAX   =-10.00  energy-range for DOS
   EFERMI =   0.00
   ISMEAR =     0;   SIGMA  =   0.02  broadening in eV -4-tet -1-fermi 0-gaus

 Electronic relaxation 2 (details)
   IALGO  =     68    algorithm
   LDIAG  =      T    sub-space diagonalisation (order eigenvalues)
   LSUBROT=      F    optimize rotation matrix (better conditioning)
   TURBO    =      0    0=normal 1=particle mesh
   IRESTART =      0    0=no restart 2=restart with 2 vectors
   NREBOOT  =      0    no. of reboots
   NMIN     =      0    reboot dimension
   EREF     =   0.00    reference energy to select bands
   IMIX   =      4    mixing-type and parameters
     AMIX     =   0.40;   BMIX     =  1.00
     AMIX_MAG =   1.60;   BMIX_MAG =  1.00
     AMIN     =   0.10
     WC   =   100.;   INIMIX=   1;  MIXPRE=   1;  MAXMIX= -45

 Intra band minimization:
   WEIMIN = 0.0010     energy-eigenvalue tresh-hold
   EBREAK =  0.30E-07  absolut break condition
   DEPER  =   0.30     relativ break condition  

   TIME   =   0.40     timestep for ELM

  volume/ion in A,a.u.               =      11.94        80.60
  Fermi-wavevector in a.u.,A,eV,Ry     =   1.432371  2.706790 27.914911  2.051688
  Thomas-Fermi vector in A             =   2.552006

 Write flags
   LWAVE        =      F    write WAVECAR
   LDOWNSAMPLE  =      F    k-point downsampling of WAVECAR
   LCHARG       =      T    write CHGCAR
   LVTOT        =      F    write LOCPOT, total local potential
   LVHAR        =      F    write LOCPOT, Hartree potential only
   LELF         =      F    write electronic localiz. function (ELF)
   LORBIT       =     11    0 simple, 1 ext, 2 COOP (PROOUT), +10 PAW based schemes


 Dipole corrections
   LMONO  =      F    monopole corrections only (constant potential shift)
   LDIPOL =      F    correct potential (dipole corrections)
   IDIPOL =      0    1-x, 2-y, 3-z, 4-all directions 
   EPSILON=  1.0000000 bulk dielectric constant

 Exchange correlation treatment:
   GGA     =    --    GGA type
   LEXCH   =     8    internal setting for exchange type
   VOSKOWN=      0    Vosko Wilk Nusair interpolation
   LHFCALC =     F    Hartree Fock is set to
   LHFONE  =     F    Hartree Fock one center treatment
   AEXX    =    0.0000 exact exchange contribution

 Linear response parameters
   LEPSILON=     F    determine dielectric tensor
   LRPA    =     F    only Hartree local field effects (RPA)
   LNABLA  =     F    use nabla operator in PAW spheres
   LVEL    =     F    velocity operator in full k-point grid
   LINTERFAST=   F  fast interpolation
   KINTER  =     0    interpolate to denser k-point grid
   CSHIFT  =0.1000    complex shift for real part using Kramers Kronig
   OMEGAMAX=  -1.0    maximum frequency
   DEG_THRESHOLD= 0.2000000E-02 threshold for treating states as degnerate
   RTIME   =   -0.100 relaxation time in fs
  (WPLASMAI=    0.000 imaginary part of plasma frequency in eV, 0.658/RTIME)
   DFIELD  = 0.0000000 0.0000000 0.0000000 field for delta impulse in time

 Orbital magnetization related:
   ORBITALMAG=     F  switch on orbital magnetization
   LCHIMAG   =     F  perturbation theory with respect to B field
   DQ        =  0.001000  dq finite difference perturbation B field
   LLRAUG    =     F  two centre corrections for induced B field



--------------------------------------------------------------------------------------------------------


 conjugate gradient relaxation of ions
 charge density and potential will be updated during run
 spin polarized calculation
 RMM-DIIS sequential band-by-band and
  variant of blocked Davidson during initial phase
 perform sub-space diagonalisation
    before iterative eigenvector-optimisation
 modified Broyden-mixing scheme, WC =      100.0
 initial mixing is a Kerker type mixing with AMIX =  0.4000 and BMIX =      1.0000
 Hartree-type preconditioning will be used
 using additional bands           20
 real space projection scheme for non local part
 use partial core corrections
 calculate Harris-corrections to forces   (improved forces if not selfconsistent)
 use gradient corrections 
 use of overlap-Matrix (Vanderbilt PP)
 Gauss-broadening in eV      SIGMA  =   0.02


--------------------------------------------------------------------------------------------------------


  energy-cutoff  :      550.00
  volume of cell :      191.10
      direct lattice vectors                 reciprocal lattice vectors
     5.760000000  0.000000000  0.000000000     0.173611111  0.000000000  0.000000000
     0.000000000  5.760000000  0.000000000     0.000000000  0.173611111  0.000000000
     0.000000000  0.000000000  5.760000000     0.000000000  0.000000000  0.173611111

  length of vectors
     5.760000000  5.760000000  5.760000000     0.173611111  0.173611111  0.173611111



 k-points in units of 2pi/SCALE and weight: k-points                                
   0.00000000  0.00000000  0.00000000       0.003
   0.14285714  0.00000000  0.00000000       0.012
   0.28571429  0.00000000  0.00000000       0.012
   0.42857143  0.00000000  0.00000000       0.012
   0.14285714  0.14285714  0.00000000       0.012
   0.28571429  0.14285714  0.00000000       0.023
   0.42857143  0.14285714  0.00000000       0.023
   0.28571429  0.28571429  0.00000000       0.012
   0.42857143  0.28571429  0.00000000       0.023
   0.42857143  0.42857143  0.00000000       0.012
   0.00000000  0.00000000  0.14285714       0.006
   0.14285714  0.00000000  0.14285714       0.023
   0.28571429  0.00000000  0.14285714       0.023
   0.42857143  0.00000000  0.14285714       0.023
   0.14285714  0.14285714  0.14285714       0.023
   0.28571429  0.14285714  0.14285714       0.047
   0.42857143  0.14285714  0.14285714       0.047
   0.28571429  0.28571429  0.14285714       0.023
   0.42857143  0.28571429  0.14285714       0.047
   0.42857143  0.42857143  0.14285714       0.023
   0.00000000  0.00000000  0.28571429       0.006
   0.14285714  0.00000000  0.28571429       0.023
   0.28571429  0.00000000  0.28571429       0.023
   0.42857143  0.00000000  0.28571429       0.023
   0.14285714  0.14285714  0.28571429       0.023
   0.28571429  0.14285714  0.28571429       0.047
   0.42857143  0.14285714  0.28571429       0.047
   0.28571429  0.28571429  0.28571429       0.023
   0.42857143  0.28571429  0.28571429       0.047
   0.42857143  0.42857143  0.28571429       0.023
   0.00000000  0.00000000  0.42857143       0.006
   0.14285714  0.00000000  0.42857143       0.023
   0.28571429  0.00000000  0.42857143       0.023
   0.42857143  0.00000000  0.42857143       0.023
   0.14285714  0.14285714  0.42857143       0.023
   0.28571429  0.14285714  0.42857143       0.047
   0.42857143  0.14285714  0.42857143       0.047
   0.28571429  0.28571429  0.42857143       0.023
   0.42857143  0.28571429  0.42857143       0.047
   0.42857143  0.42857143  0.42857143       0.023

 k-points in reciprocal lattice and weights: k-points                                
   0.00000000  0.00000000  0.00000000       0.003
   0.14285714  0.00000000  0.00000000       0.012
   0.28571429  0.00000000  0.00000000       0.012
   0.42857143  0.00000000  0.00000000       0.012
   0.14285714  0.14285714  0.00000000       0.012
   0.28571429  0.14285714  0.00000000       0.023
   0.42857143  0.14285714  0.00000000       0.023
   0.28571429  0.28571429  0.00000000       0.012
   0.42857143  0.28571429  0.00000000       0.023
   0.42857143  0.42857143  0.00000000       0.012
   0.00000000  0.00000000  0.14285714       0.006
   0.14285714  0.00000000  0.14285714       0.023
   0.28571429  0.00000000  0.14285714       0.023
   0.42857143  0.00000000  0.14285714       0.023
   0.14285714  0.14285714  0.14285714       0.023
   0.28571429  0.14285714  0.14285714       0.047
   0.42857143  0.14285714  0.14285714       0.047
   0.28571429  0.28571429  0.14285714       0.023
   0.42857143  0.28571429  0.14285714       0.047
   0.42857143  0.42857143  0.14285714       0.023
   0.00000000  0.00000000  0.28571429       0.006
   0.14285714  0.00000000  0.28571429       0.023
   0.28571429  0.00000000  0.28571429       0.023
   0.42857143  0.00000000  0.28571429       0.023
   0.14285714  0.14285714  0.28571429       0.023
   0.28571429  0.14285714  0.28571429       0.047
   0.42857143  0.14285714  0.28571429       0.047
   0.28571429  0.28571429  0.28571429       0.023
   0.42857143  0.28571429  0.28571429       0.047
   0.42857143  0.42857143  0.28571429       0.023
   0.00000000  0.00000000  0.42857143       0.006
   0.14285714  0.00000000  0.42857143       0.023
   0.28571429  0.00000000  0.42857143       0.023
   0.42857143  0.00000000  0.42857143       0.023
   0.14285714  0.14285714  0.42857143       0.023
   0.28571429  0.14285714  0.42857143       0.047
   0.42857143  0.14285714  0.42857143       0.047
   0.28571429  0.28571429  0.42857143       0.023
   0.42857143  0.28571429  0.42857143       0.047
   0.42857143  0.42857143  0.42857143       0.023

 position of ions in fractional coordinates (direct lattice) 
   0.25049353  0.24950647  0.26666954
   0.74950647  0.24950647  0.26666954
   0.25049353  0.75049353  0.26666954
   0.74950647  0.75049353  0.26666954
   0.25049353  0.24950647  0.73333046
   0.74950647  0.24950647  0.73333046
   0.25049353  0.75049353  0.73333046
   0.74950647  0.75049353  0.73333046
   0.50000000  0.00000000  0.00000000
   0.00000000  0.50000000  0.00000000
   0.00000000  0.00000000  0.50000000
   0.50000000  0.00000000  0.50000000
   0.50000000  0.50000000  0.50000000
   0.00000000  0.50000000  0.50000000
   0.00000000  0.00000000  0.00000000
   0.50000000  0.50000000  0.00000000

 position of ions in cartesian coordinates  (Angst):
   1.44284271  1.43715729  1.53601652
   4.31715729  1.43715729  1.53601652
   1.44284271  4.32284271  1.53601652
   4.31715729  4.32284271  1.53601652
   1.44284271  1.43715729  4.22398348
   4.31715729  1.43715729  4.22398348
   1.44284271  4.32284271  4.22398348
   4.31715729  4.32284271  4.22398348
   2.88000000  0.00000000  0.00000000
   0.00000000  2.88000000  0.00000000
   0.00000000  0.00000000  2.88000000
   2.88000000  0.00000000  2.88000000
   2.88000000  2.88000000  2.88000000
   0.00000000  2.88000000  2.88000000
   0.00000000  0.00000000  0.00000000
   2.88000000  2.88000000  0.00000000



--------------------------------------------------------------------------------------------------------


 k-point  1 :   0.0000 0.0000 0.0000  plane waves:    5575
 k-point  2 :   0.1429 0.0000 0.0000  plane waves:    5594
 k-point  3 :   0.2857 0.0000 0.0000  plane waves:    5594
 k-point  4 :   0.4286 0.0000 0.0000  plane waves:    5586
 k-point  5 :   0.1429 0.1429 0.0000  plane waves:    5577
 k-point  6 :   0.2857 0.1429 0.0000  plane waves:    5589
 k-point  7 :   0.4286 0.1429 0.0000  plane waves:    5582
 k-point  8 :   0.2857 0.2857 0.0000  plane waves:    5582
 k-point  9 :   0.4286 0.2857 0.0000  plane waves:    5590
 k-point 10 :   0.4286 0.4286 0.0000  plane waves:    5574
 k-point 11 :   0.0000 0.0000 0.1429  plane waves:    5594
 k-point 12 :   0.1429 0.0000 0.1429  plane waves:    5577
 k-point 13 :   0.2857 0.0000 0.1429  plane waves:    5589
 k-point 14 :   0.4286 0.0000 0.1429  plane waves:    5582
 k-point 15 :   0.1429 0.1429 0.1429  plane waves:    5575
 k-point 16 :   0.2857 0.1429 0.1429  plane waves:    5602
 k-point 17 :   0.4286 0.1429 0.1429  plane waves:    5593
 k-point 18 :   0.2857 0.2857 0.1429  plane waves:    5594
 k-point 19 :   0.4286 0.2857 0.1429  plane waves:    5592
 k-point 20 :   0.4286 0.4286 0.1429  plane waves:    5607
 k-point 21 :   0.0000 0.0000 0.2857  plane waves:    5594
 k-point 22 :   0.1429 0.0000 0.2857  plane waves:    5589
 k-point 23 :   0.2857 0.0000 0.2857  plane waves:    5582
 k-point 24 :   0.4286 0.0000 0.2857  plane waves:    5590
 k-point 25 :   0.1429 0.1429 0.2857  plane waves:    5602
 k-point 26 :   0.2857 0.1429 0.2857  plane waves:    5594
 k-point 27 :   0.4286 0.1429 0.2857  plane waves:    5592
 k-point 28 :   0.2857 0.2857 0.2857  plane waves:    5605
 k-point 29 :   0.4286 0.2857 0.2857  plane waves:    5616
 k-point 30 :   0.4286 0.4286 0.2857  plane waves:    5623
 k-point 31 :   0.0000 0.0000 0.4286  plane waves:    5586
 k-point 32 :   0.1429 0.0000 0.4286  plane waves:    5582
 k-point 33 :   0.2857 0.0000 0.4286  plane waves:    5590
 k-point 34 :   0.4286 0.0000 0.4286  plane waves:    5574
 k-point 35 :   0.1429 0.1429 0.4286  plane waves:    5593
 k-point 36 :   0.2857 0.1429 0.4286  plane waves:    5592
 k-point 37 :   0.4286 0.1429 0.4286  plane waves:    5607
 k-point 38 :   0.2857 0.2857 0.4286  plane waves:    5616
 k-point 39 :   0.4286 0.2857 0.4286  plane waves:    5623
 k-point 40 :   0.4286 0.4286 0.4286  plane waves:    5625

 maximum and minimum number of plane-waves per node :      5625     5574

 maximum number of plane-waves:      5625
 maximum index in each direction: 
   IXMAX=   11   IYMAX=   11   IZMAX=   11
   IXMIN=  -11   IYMIN=  -11   IZMIN=  -11


 serial   3D FFT for wavefunctions
 parallel 3D FFT for charge:
    minimum data exchange during FFTs selected (reduces bandwidth)


 total amount of memory used by VASP MPI-rank0    98881. kBytes
=======================================================================

   base      :      30000. kBytes
   nonlr-proj:       7535. kBytes
   fftplans  :       1269. kBytes
   grid      :       6573. kBytes
   one-center:        497. kBytes
   wavefun   :      53007. kBytes

     INWAV:  cpu time    0.0000: real time    0.0000
 Broyden mixing: mesh for mixing (old mesh)
   NGX = 23   NGY = 23   NGZ = 23
  (NGX  = 72   NGY  = 72   NGZ  = 72)
  gives a total of  12167 points

 initial charge density was supplied:
 charge density of overlapping atoms calculated
 number of electron     128.0000000 magnetization       0.8000000
 keeping initial charge density in first step


--------------------------------------------------------------------------------------------------------


 Maximum index for non-local projection operator         4337
 Maximum index for augmentation-charges         2327 (set IRDMAX)


--------------------------------------------------------------------------------------------------------


 First call to EWALD:  gamma=   0.308
 Maximum number of real-space cells 3x 3x 3
 Maximum number of reciprocal cells 3x 3x 3

    FEWALD:  cpu time    0.0020: real time    0.0021


--------------------------------------- Iteration      1(   1)  ---------------------------------------


    POTLOK:  cpu time    0.0988: real time    0.1126
    SETDIJ:  cpu time    0.0370: real time    0.0370
     EDDAV:  cpu time   24.3265: real time   24.3871
       DOS:  cpu time    0.0036: real time    0.0037
    --------------------------------------------
      LOOP:  cpu time   24.4658: real time   24.5405

 eigenvalue-minimisations  : 13440
 total energy-change (2. order) : 0.1105193E+04  (-0.5417720E+04)
 number of electron     128.0000000 magnetization       0.8000000
 augmentation part      128.0000000 magnetization       0.8000000

 Free energy of the ion-electron system (eV)
  ---------------------------------------------------
  alpha Z        PSCENC =       588.81641228
  Ewald energy   TEWEN  =     -9622.65973916
  -Hartree energ DENC   =     -2985.54620325
  -exchange      EXHF   =         0.00000000
  -V(xc)+E(xc)   XCENC  =        82.17460192
  PAW double counting   =     10320.96726947   -10647.99417394
  entropy T*S    EENTRO =        -0.00131826
  eigenvalues    EBANDS =      2139.97457134
  atomic energy  EATOM  =     11229.46195210
  Solvation  Ediel_sol  =         0.00000000
  ---------------------------------------------------
  free energy    TOTEN  =      1105.19337250 eV

  energy without entropy =     1105.19469076  energy(sigma->0) =     1105.19403163


--------------------------------------------------------------------------------------------------------




--------------------------------------- Iteration      1(   2)  ---------------------------------------


     EDDAV:  cpu time   24.4232: real time   25.1967
       DOS:  cpu time    0.0037: real time    0.0039
    --------------------------------------------
      LOOP:  cpu time   24.4269: real time   25.2006

 eigenvalue-minimisations  : 13440
 total energy-change (2. order) :-0.1096603E+04  (-0.1061627E+04)
 number of electron     128.0000000 magnetization       0.8000000
 augmentation part      128.0000000 magnetization       0.8000000

 Free energy of the ion-electron system (eV)
  ---------------------------------------------------
  alpha Z        PSCENC =       588.81641228
  Ewald energy   TEWEN  =     -9622.65973916
  -Hartree energ DENC   =     -2985.54620325
  -exchange      EXHF   =         0.00000000
  -V(xc)+E(xc)   XCENC  =        82.17460192
  PAW double counting   =     10320.96726947   -10647.99417394
  entropy T*S    EENTRO =        -0.00261892
  eigenvalues    EBANDS =      1043.37320068
  atomic energy  EATOM  =     11229.46195210
  Solvation  Ediel_sol  =         0.00000000
  ---------------------------------------------------
  free energy    TOTEN  =         8.59070118 eV

  energy without entropy =        8.59332010  energy(sigma->0) =        8.59201064


--------------------------------------------------------------------------------------------------------




--------------------------------------- Iteration      1(   3)  ---------------------------------------


     EDDAV:  cpu time   26.6089: real time   26.6571
       DOS:  cpu time    0.0034: real time    0.0035
    --------------------------------------------
      LOOP:  cpu time   26.6122: real time   26.6606

 eigenvalue-minimisations  : 15048
 total energy-change (2. order) :-0.1183794E+03  (-0.1068883E+03)
 number of electron     128.0000000 magnetization       0.8000000
 augmentation part      128.0000000 magnetization       0.8000000

 Free energy of the ion-electron system (eV)
  ---------------------------------------------------
  alpha Z        PSCENC =       588.81641228
  Ewald energy   TEWEN  =     -9622.65973916
  -Hartree energ DENC   =     -2985.54620325
  -exchange      EXHF   =         0.00000000
  -V(xc)+E(xc)   XCENC  =        82.17460192
  PAW double counting   =     10320.96726947   -10647.99417394
  entropy T*S    EENTRO =        -0.00259319
  eigenvalues    EBANDS =       924.99376803
  atomic energy  EATOM  =     11229.46195210
  Solvation  Ediel_sol  =         0.00000000
  ---------------------------------------------------
  free energy    TOTEN  =      -109.78870574 eV

  energy without entropy =     -109.78611255  energy(sigma->0) =     -109.78740915


--------------------------------------------------------------------------------------------------------




--------------------------------------- Iteration      1(   4)  ---------------------------------------


     EDDAV:  cpu time   32.1428: real time   32.1988
       DOS:  cpu time    0.0037: real time    0.0038
    --------------------------------------------
      LOOP:  cpu time   32.1464: real time   32.2026

 eigenvalue-minimisations  : 19008
 total energy-change (2. order) :-0.6391511E+01  (-0.6084074E+01)
 number of electron     128.0000000 magnetization       0.8000000
 augmentation part      128.0000000 magnetization       0.8000000

 Free energy of the ion-electron system (eV)
  ---------------------------------------------------
  alpha Z        PSCENC =       588.81641228
  Ewald energy   TEWEN  =     -9622.65973916
  -Hartree energ DENC   =     -2985.54620325
  -exchange      EXHF   =         0.00000000
  -V(xc)+E(xc)   XCENC  =        82.17460192
  PAW double counting   =     10320.96726947   -10647.99417394
  entropy T*S    EENTRO =        -0.00243698
  eigenvalues    EBANDS =       918.60210121
  atomic energy  EATOM  =     11229.46195210
  Solvation  Ediel_sol  =         0.00000000
  ---------------------------------------------------
  free energy    TOTEN  =      -116.18021635 eV

  energy without entropy =     -116.17777937  energy(sigma->0) =     -116.17899786


--------------------------------------------------------------------------------------------------------




--------------------------------------- Iteration      1(   5)  ---------------------------------------


     EDDAV:  cpu time   32.7901: real time   32.8393
       DOS:  cpu time    0.0035: real time    0.0037
    CHARGE:  cpu time    0.6941: real time    0.6946
    MIXING:  cpu time    0.0016: real time    0.0016
    --------------------------------------------
      LOOP:  cpu time   33.4893: real time   33.5392

 eigenvalue-minimisations  : 19488
 total energy-change (2. order) :-0.2203740E+00  (-0.2195982E+00)
 number of electron     128.0000333 magnetization       0.9157820
 augmentation part       60.6355558 magnetization       0.4634156

 Broyden mixing:
  rms(total) = 0.37973E+01    rms(broyden)= 0.37972E+01
  rms(prec ) = 0.55387E+01
  weight for this iteration     100.00

 Free energy of the ion-electron system (eV)
  ---------------------------------------------------
  alpha Z        PSCENC =       588.81641228
  Ewald energy   TEWEN  =     -9622.65973916
  -Hartree energ DENC   =     -2985.54620325
  -exchange      EXHF   =         0.00000000
  -V(xc)+E(xc)   XCENC  =        82.17460192
  PAW double counting   =     10320.96726947   -10647.99417394
  entropy T*S    EENTRO =        -0.00239512
  eigenvalues    EBANDS =       918.38168539
  atomic energy  EATOM  =     11229.46195210
  Solvation  Ediel_sol  =         0.00000000
  ---------------------------------------------------
  free energy    TOTEN  =      -116.40059030 eV

  energy without entropy =     -116.39819519  energy(sigma->0) =     -116.39939275


--------------------------------------------------------------------------------------------------------




--------------------------------------- Iteration      1(   6)  ---------------------------------------


    POTLOK:  cpu time    0.0970: real time    0.0972
    SETDIJ:  cpu time    0.0375: real time    0.0376
    EDDIAG:  cpu time    3.1373: real time    3.1407
  RMM-DIIS:  cpu time   10.8524: real time   10.8700
    ORTHCH:  cpu time    0.5759: real time    0.5765
       DOS:  cpu time    0.0037: real time    0.0039
    CHARGE:  cpu time    0.6948: real time    0.6953
    MIXING:  cpu time    0.0017: real time    0.0017
    --------------------------------------------
      LOOP:  cpu time   15.4003: real time   15.4229

 eigenvalue-minimisations  : 13440
 total energy-change (2. order) : 0.9588088E+01  (-0.1390427E+02)
 number of electron     128.0000288 magnetization      -0.2579804
 augmentation part       69.1690437 magnetization       0.3344397

 Broyden mixing:
  rms(total) = 0.38297E+01    rms(broyden)= 0.38296E+01
  rms(prec ) = 0.51147E+01
  weight for this iteration     100.00

 eigenvalues of (default mixing * dielectric matrix)
  average eigenvalue GAMMA=   0.3116
  0.3116

 Free energy of the ion-electron system (eV)
  ---------------------------------------------------
  alpha Z        PSCENC =       588.81641228
  Ewald energy   TEWEN  =     -9622.65973916
  -Hartree energ DENC   =     -2757.06252492
  -exchange      EXHF   =         0.00000000
  -V(xc)+E(xc)   XCENC  =        69.39427729
  PAW double counting   =     11477.45964705   -11773.53249576
  entropy T*S    EENTRO =        -0.00355210
  eigenvalues    EBANDS =       681.31352113
  atomic energy  EATOM  =     11229.46195210
  Solvation  Ediel_sol  =         0.00000000
  ---------------------------------------------------
  free energy    TOTEN  =      -106.81250208 eV

  energy without entropy =     -106.80894998  energy(sigma->0) =     -106.81072603


--------------------------------------------------------------------------------------------------------




--------------------------------------- Iteration      1(   7)  ---------------------------------------


    POTLOK:  cpu time    0.0970: real time    0.0971
    SETDIJ:  cpu time    0.0373: real time    0.0373
    EDDIAG:  cpu time    3.1452: real time    3.1484
  RMM-DIIS:  cpu time   10.7737: real time   10.7866
    ORTHCH:  cpu time    0.5733: real time    0.5738
       DOS:  cpu time    0.0037: real time    0.0039
    CHARGE:  cpu time    0.6923: real time    0.6928
    MIXING:  cpu time    0.0027: real time    0.0027
    --------------------------------------------
      LOOP:  cpu time   15.3251: real time   15.3426

 eigenvalue-minimisations  : 13487
 total energy-change (2. order) :-0.4367744E+01  (-0.2160032E+01)
 number of electron     128.0000382 magnetization      -0.7884915
 augmentation part       69.3700353 magnetization      -1.2999260

 Broyden mixing:
  rms(total) = 0.37682E+01    rms(broyden)= 0.37682E+01
  rms(prec ) = 0.70279E+01
  weight for this iteration     100.00

 eigenvalues of (default mixing * dielectric matrix)
  average eigenvalue GAMMA=   0.4712
  0.5426  0.3998

 Free energy of the ion-electron system (eV)
  ---------------------------------------------------
  alpha Z        PSCENC =       588.81641228
  Ewald energy   TEWEN  =     -9622.65973916
  -Hartree energ DENC   =     -2748.95978527
  -exchange      EXHF   =         0.00000000
  -V(xc)+E(xc)   XCENC  =        71.02190925
  PAW double counting   =     11906.93586051   -12212.46988172
  entropy T*S    EENTRO =        -0.00259440
  eigenvalues    EBANDS =       676.67562013
  atomic energy  EATOM  =     11229.46195210
  Solvation  Ediel_sol  =         0.00000000
  ---------------------------------------------------
  free energy    TOTEN  =      -111.18024628 eV

  energy without entropy =     -111.17765188  energy(sigma->0) =     -111.17894908


--------------------------------------------------------------------------------------------------------




--------------------------------------- Iteration      1(   8)  ---------------------------------------


    POTLOK:  cpu time    0.1039: real time    0.1052
    SETDIJ:  cpu time    0.0391: real time    0.0392
    EDDIAG:  cpu time    3.2206: real time    3.2240
  RMM-DIIS:  cpu time   10.8312: real time   10.8467
    ORTHCH:  cpu time    0.5770: real time    0.5776
       DOS:  cpu time    0.0039: real time    0.0041
    CHARGE:  cpu time    0.6959: real time    0.6994
    MIXING:  cpu time    0.0017: real time    0.0017
    --------------------------------------------
      LOOP:  cpu time   15.4734: real time   15.4979

 eigenvalue-minimisations  : 13440
 total energy-change (2. order) : 0.5007759E+01  (-0.2383539E+01)
 number of electron     128.0000314 magnetization      -1.1342974
 augmentation part       68.0641251 magnetization      -0.5976184

 Broyden mixing:
  rms(total) = 0.28924E+01    rms(broyden)= 0.28923E+01
  rms(prec ) = 0.55317E+01
  weight for this iteration     100.00

 eigenvalues of (default mixing * dielectric matrix)
  average eigenvalue GAMMA=   0.4676
  0.8281  0.4052  0.1697

 Free energy of the ion-electron system (eV)
  ---------------------------------------------------
  alpha Z        PSCENC =       588.81641228
  Ewald energy   TEWEN  =     -9622.65973916
  -Hartree energ DENC   =     -2787.89711497
  -exchange      EXHF   =         0.00000000
  -V(xc)+E(xc)   XCENC  =        73.65745152
  PAW double counting   =     12295.59690961   -12621.52254394
  entropy T*S    EENTRO =        -0.00301143
  eigenvalues    EBANDS =       738.37719648
  atomic energy  EATOM  =     11229.46195210
  Solvation  Ediel_sol  =         0.00000000
  ---------------------------------------------------
  free energy    TOTEN  =      -106.17248751 eV

  energy without entropy =     -106.16947607  energy(sigma->0) =     -106.17098179


--------------------------------------------------------------------------------------------------------




--------------------------------------- Iteration      1(   9)  ---------------------------------------


    POTLOK:  cpu time    0.0972: real time    0.0974
    SETDIJ:  cpu time    0.0375: real time    0.0375
    EDDIAG:  cpu time    3.1583: real time    3.1618
  RMM-DIIS:  cpu time   10.8636: real time   10.8749
    ORTHCH:  cpu time    0.5741: real time    0.5746
       DOS:  cpu time    0.0037: real time    0.0039
    CHARGE:  cpu time    0.6986: real time    0.6991
    MIXING:  cpu time    0.0018: real time    0.0018
    --------------------------------------------
      LOOP:  cpu time   15.4348: real time   15.4512

 eigenvalue-minimisations  : 13453
 total energy-change (2. order) : 0.3295134E+01  (-0.6349790E+00)
 number of electron     128.0000308 magnetization      -1.1226910
 augmentation part       66.5363519 magnetization      -1.3594292

 Broyden mixing:
  rms(total) = 0.15105E+01    rms(broyden)= 0.15105E+01
  rms(prec ) = 0.24581E+01
  weight for this iteration     100.00

 eigenvalues of (default mixing * dielectric matrix)
  average eigenvalue GAMMA=   0.5268
  1.2082  0.4527  0.3130  0.1333

 Free energy of the ion-electron system (eV)
  ---------------------------------------------------
  alpha Z        PSCENC =       588.81641228
  Ewald energy   TEWEN  =     -9622.65973916
  -Hartree energ DENC   =     -2804.71096421
  -exchange      EXHF   =         0.00000000
  -V(xc)+E(xc)   XCENC  =        74.30179123
  PAW double counting   =     12564.26889227   -12900.21879009
  entropy T*S    EENTRO =        -0.00252523
  eigenvalues    EBANDS =       767.86561711
  atomic energy  EATOM  =     11229.46195210
  Solvation  Ediel_sol  =         0.00000000
  ---------------------------------------------------
  free energy    TOTEN  =      -102.87735369 eV

  energy without entropy =     -102.87482847  energy(sigma->0) =     -102.87609108


--------------------------------------------------------------------------------------------------------




--------------------------------------- Iteration      1(  10)  ---------------------------------------


    POTLOK:  cpu time    0.0972: real time    0.0974
    SETDIJ:  cpu time    0.0375: real time    0.0376
    EDDIAG:  cpu time    3.1641: real time    3.1676
  RMM-DIIS:  cpu time   10.7958: real time   10.8070
    ORTHCH:  cpu time    0.5777: real time    0.5784
       DOS:  cpu time    0.0033: real time    0.0035
    CHARGE:  cpu time    0.7014: real time    0.7019
    MIXING:  cpu time    0.0020: real time    0.0020
    --------------------------------------------
      LOOP:  cpu time   15.3791: real time   15.3954

 eigenvalue-minimisations  : 13444
 total energy-change (2. order) : 0.7382473E+00  (-0.1851280E+00)
 number of electron     128.0000334 magnetization      -0.7581413
 augmentation part       67.3712272 magnetization      -0.9683959

 Broyden mixing:
  rms(total) = 0.86961E+00    rms(broyden)= 0.86958E+00
  rms(prec ) = 0.11890E+01
  weight for this iteration     100.00

 eigenvalues of (default mixing * dielectric matrix)
  average eigenvalue GAMMA=   0.5024
  1.2076  0.4727  0.4727  0.2212  0.1380

 Free energy of the ion-electron system (eV)
  ---------------------------------------------------
  alpha Z        PSCENC =       588.81641228
  Ewald energy   TEWEN  =     -9622.65973916
  -Hartree energ DENC   =     -2784.36715830
  -exchange      EXHF   =         0.00000000
  -V(xc)+E(xc)   XCENC  =        73.58832135
  PAW double counting   =     12960.38126039   -13299.19646309
  entropy T*S    EENTRO =        -0.00258139
  eigenvalues    EBANDS =       751.83888939
  atomic energy  EATOM  =     11229.46195210
  Solvation  Ediel_sol  =         0.00000000
  ---------------------------------------------------
  free energy    TOTEN  =      -102.13910643 eV

  energy without entropy =     -102.13652504  energy(sigma->0) =     -102.13781574


--------------------------------------------------------------------------------------------------------




--------------------------------------- Iteration      1(  11)  ---------------------------------------


    POTLOK:  cpu time    0.0972: real time    0.0974
    SETDIJ:  cpu time    0.0372: real time    0.0373
    EDDIAG:  cpu time    3.1912: real time    3.1947
  RMM-DIIS:  cpu time   10.8815: real time   10.8970
    ORTHCH:  cpu time    0.5771: real time    0.5776
       DOS:  cpu time    0.0038: real time    0.0040
    CHARGE:  cpu time    0.7055: real time    0.7061
    MIXING:  cpu time    0.0020: real time    0.0020
    --------------------------------------------
      LOOP:  cpu time   15.4955: real time   15.5160

 eigenvalue-minimisations  : 13464
 total energy-change (2. order) :-0.9694523E-02  (-0.3764621E-01)
 number of electron     128.0000324 magnetization      -0.2704092
 augmentation part       67.2800999 magnetization      -0.5124780

 Broyden mixing:
  rms(total) = 0.53697E+00    rms(broyden)= 0.53697E+00
  rms(prec ) = 0.59329E+00
  weight for this iteration     100.00

 eigenvalues of (default mixing * dielectric matrix)
  average eigenvalue GAMMA=   0.6055
  1.2666  0.7463  0.7463  0.5220  0.2160  0.1356

 Free energy of the ion-electron system (eV)
  ---------------------------------------------------
  alpha Z        PSCENC =       588.81641228
  Ewald energy   TEWEN  =     -9622.65973916
  -Hartree energ DENC   =     -2783.74405446
  -exchange      EXHF   =         0.00000000
  -V(xc)+E(xc)   XCENC  =        74.62201421
  PAW double counting   =     13158.59980030   -13501.21687494
  entropy T*S    EENTRO =        -0.00201902
  eigenvalues    EBANDS =       753.97370774
  atomic energy  EATOM  =     11229.46195210
  Solvation  Ediel_sol  =         0.00000000
  ---------------------------------------------------
  free energy    TOTEN  =      -102.14880096 eV

  energy without entropy =     -102.14678193  energy(sigma->0) =     -102.14779145


--------------------------------------------------------------------------------------------------------




--------------------------------------- Iteration      1(  12)  ---------------------------------------


    POTLOK:  cpu time    0.0981: real time    0.1096
    SETDIJ:  cpu time    0.0369: real time    0.0370
    EDDIAG:  cpu time    3.2005: real time    3.2033
  RMM-DIIS:  cpu time   10.8763: real time   10.8848
    ORTHCH:  cpu time    0.5779: real time    0.5784
       DOS:  cpu time    0.0037: real time    0.0037
    CHARGE:  cpu time    0.7033: real time    0.7037
    MIXING:  cpu time    0.0022: real time    0.0022
    --------------------------------------------
      LOOP:  cpu time   15.4989: real time   15.5226

 eigenvalue-minimisations  : 13526
 total energy-change (2. order) :-0.2296827E+00  (-0.3418629E-01)
 number of electron     128.0000319 magnetization       0.2933157
 augmentation part       67.2413768 magnetization       0.0653430

 Broyden mixing:
  rms(total) = 0.53417E+00    rms(broyden)= 0.53417E+00
  rms(prec ) = 0.75434E+00
  weight for this iteration     100.00

 eigenvalues of (default mixing * dielectric matrix)
  average eigenvalue GAMMA=   0.6898
  1.9477  0.7932  0.7932  0.6530  0.1356  0.2181  0.2880

 Free energy of the ion-electron system (eV)
  ---------------------------------------------------
  alpha Z        PSCENC =       588.81641228
  Ewald energy   TEWEN  =     -9622.65973916
  -Hartree energ DENC   =     -2782.54153647
  -exchange      EXHF   =         0.00000000
  -V(xc)+E(xc)   XCENC  =        75.64916070
  PAW double counting   =     13362.00912280   -13708.10915933
  entropy T*S    EENTRO =        -0.00208104
  eigenvalues    EBANDS =       754.99738450
  atomic energy  EATOM  =     11229.46195210
  Solvation  Ediel_sol  =         0.00000000
  ---------------------------------------------------
  free energy    TOTEN  =      -102.37848362 eV

  energy without entropy =     -102.37640258  energy(sigma->0) =     -102.37744310


--------------------------------------------------------------------------------------------------------




--------------------------------------- Iteration      1(  13)  ---------------------------------------


    POTLOK:  cpu time    0.0972: real time    0.0973
    SETDIJ:  cpu time    0.0366: real time    0.0366
    EDDIAG:  cpu time    3.2128: real time    3.2155
  RMM-DIIS:  cpu time   10.9409: real time   10.9493
    ORTHCH:  cpu time    0.5793: real time    0.5798
       DOS:  cpu time    0.0037: real time    0.0037
    CHARGE:  cpu time    0.7056: real time    0.7061
    MIXING:  cpu time    0.0023: real time    0.0023
    --------------------------------------------
      LOOP:  cpu time   15.5784: real time   15.5905

 eigenvalue-minimisations  : 13535
 total energy-change (2. order) :-0.9346565E-02  (-0.2385481E-01)
 number of electron     128.0000322 magnetization       0.3917488
 augmentation part       67.5026890 magnetization       0.0967633

 Broyden mixing:
  rms(total) = 0.19570E+00    rms(broyden)= 0.19570E+00
  rms(prec ) = 0.26120E+00
  weight for this iteration     100.00

 eigenvalues of (default mixing * dielectric matrix)
  average eigenvalue GAMMA=   0.7194
  2.1770  0.8940  0.8940  0.5829  0.5829  0.1357  0.2180  0.2708

 Free energy of the ion-electron system (eV)
  ---------------------------------------------------
  alpha Z        PSCENC =       588.81641228
  Ewald energy   TEWEN  =     -9622.65973916
  -Hartree energ DENC   =     -2775.95661538
  -exchange      EXHF   =         0.00000000
  -V(xc)+E(xc)   XCENC  =        76.56582175
  PAW double counting   =     13627.70619971   -13976.82394216
  entropy T*S    EENTRO =        -0.00146104
  eigenvalues    EBANDS =       750.50354170
  atomic energy  EATOM  =     11229.46195210
  Solvation  Ediel_sol  =         0.00000000
  ---------------------------------------------------
  free energy    TOTEN  =      -102.38783019 eV

  energy without entropy =     -102.38636915  energy(sigma->0) =     -102.38709967


--------------------------------------------------------------------------------------------------------




--------------------------------------- Iteration      1(  14)  ---------------------------------------


    POTLOK:  cpu time    0.0974: real time    0.0975
    SETDIJ:  cpu time    0.0368: real time    0.0369
    EDDIAG:  cpu time    3.2243: real time    3.2269
  RMM-DIIS:  cpu time   12.0083: real time   12.0177
    ORTHCH:  cpu time    0.5796: real time    0.5801
       DOS:  cpu time    0.0037: real time    0.0037
    CHARGE:  cpu time    0.7082: real time    0.7086
    MIXING:  cpu time    0.0025: real time    0.0025
    --------------------------------------------
      LOOP:  cpu time   16.6608: real time   16.6739

 eigenvalue-minimisations  : 14298
 total energy-change (2. order) :-0.1442928E-01  (-0.6245277E-02)
 number of electron     128.0000321 magnetization       0.4685634
 augmentation part       67.4638431 magnetization       0.1059451

 Broyden mixing:
  rms(total) = 0.15368E+00    rms(broyden)= 0.15368E+00
  rms(prec ) = 0.22277E+00
  weight for this iteration     100.00

 eigenvalues of (default mixing * dielectric matrix)
  average eigenvalue GAMMA=   0.7091
  2.2433  0.9686  0.9686  0.5958  0.5958  0.1356  0.3881  0.2195  0.2666

 Free energy of the ion-electron system (eV)
  ---------------------------------------------------
  alpha Z        PSCENC =       588.81641228
  Ewald energy   TEWEN  =     -9622.65973916
  -Hartree energ DENC   =     -2776.52818128
  -exchange      EXHF   =         0.00000000
  -V(xc)+E(xc)   XCENC  =        76.85254535
  PAW double counting   =     13678.14807674   -14028.04764849
  entropy T*S    EENTRO =        -0.00137980
  eigenvalues    EBANDS =       751.55570280
  atomic energy  EATOM  =     11229.46195210
  Solvation  Ediel_sol  =         0.00000000
  ---------------------------------------------------
  free energy    TOTEN  =      -102.40225947 eV

  energy without entropy =     -102.40087967  energy(sigma->0) =     -102.40156957


--------------------------------------------------------------------------------------------------------




--------------------------------------- Iteration      1(  15)  ---------------------------------------


    POTLOK:  cpu time    0.0985: real time    0.0986
    SETDIJ:  cpu time    0.0371: real time    0.0372
    EDDIAG:  cpu time    3.2286: real time    3.2313
  RMM-DIIS:  cpu time   11.1744: real time   11.1830
    ORTHCH:  cpu time    0.5779: real time    0.5784
       DOS:  cpu time    0.0038: real time    0.0038
    CHARGE:  cpu time    0.7082: real time    0.7087
    MIXING:  cpu time    0.0027: real time    0.0027
    --------------------------------------------
      LOOP:  cpu time   15.8312: real time   15.8437

 eigenvalue-minimisations  : 13812
 total energy-change (2. order) : 0.1625581E-02  (-0.2596732E-02)
 number of electron     128.0000321 magnetization       0.4415677
 augmentation part       67.4517755 magnetization       0.1296291

 Broyden mixing:
  rms(total) = 0.81129E-01    rms(broyden)= 0.81127E-01
  rms(prec ) = 0.11285E+00
  weight for this iteration     100.00

 eigenvalues of (default mixing * dielectric matrix)
  average eigenvalue GAMMA=   0.7648
  2.2326  1.3204  1.3204  0.6665  0.6665  0.5624  0.1356  0.2191  0.2747  0.2493

 Free energy of the ion-electron system (eV)
  ---------------------------------------------------
  alpha Z        PSCENC =       588.81641228
  Ewald energy   TEWEN  =     -9622.65973916
  -Hartree energ DENC   =     -2776.72042264
  -exchange      EXHF   =         0.00000000
  -V(xc)+E(xc)   XCENC  =        77.04678933
  PAW double counting   =     13718.38221090   -14068.66402645
  entropy T*S    EENTRO =        -0.00142331
  eigenvalues    EBANDS =       751.93761305
  atomic energy  EATOM  =     11229.46195210
  Solvation  Ediel_sol  =         0.00000000
  ---------------------------------------------------
  free energy    TOTEN  =      -102.40063389 eV

  energy without entropy =     -102.39921058  energy(sigma->0) =     -102.39992223


--------------------------------------------------------------------------------------------------------




--------------------------------------- Iteration      1(  16)  ---------------------------------------


    POTLOK:  cpu time    0.1069: real time    0.1076
    SETDIJ:  cpu time    0.0396: real time    0.0397
    EDDIAG:  cpu time    3.2950: real time    3.2977
  RMM-DIIS:  cpu time   11.9283: real time   11.9375
    ORTHCH:  cpu time    0.5776: real time    0.5780
       DOS:  cpu time    0.0038: real time    0.0038
    CHARGE:  cpu time    0.7097: real time    0.7101
    MIXING:  cpu time    0.0030: real time    0.0030
    --------------------------------------------
      LOOP:  cpu time   16.6639: real time   16.6775

 eigenvalue-minimisations  : 14228
 total energy-change (2. order) : 0.3945502E-03  (-0.7652732E-03)
 number of electron     128.0000321 magnetization       0.4776701
 augmentation part       67.4691767 magnetization       0.1509102

 Broyden mixing:
  rms(total) = 0.38950E-01    rms(broyden)= 0.38950E-01
  rms(prec ) = 0.41844E-01
  weight for this iteration     100.00

 eigenvalues of (default mixing * dielectric matrix)
  average eigenvalue GAMMA=   0.8105
  2.4124  1.8314  0.9426  0.9426  0.6685  0.6685  0.5678  0.1356  0.2191  0.2779
  0.2490

 Free energy of the ion-electron system (eV)
  ---------------------------------------------------
  alpha Z        PSCENC =       588.81641228
  Ewald energy   TEWEN  =     -9622.65973916
  -Hartree energ DENC   =     -2776.52232572
  -exchange      EXHF   =         0.00000000
  -V(xc)+E(xc)   XCENC  =        77.00831904
  PAW double counting   =     13730.83736955   -14080.85827866
  entropy T*S    EENTRO =        -0.00129032
  eigenvalues    EBANDS =       751.51734155
  atomic energy  EATOM  =     11229.46195210
  Solvation  Ediel_sol  =         0.00000000
  ---------------------------------------------------
  free energy    TOTEN  =      -102.40023933 eV

  energy without entropy =     -102.39894902  energy(sigma->0) =     -102.39959418


--------------------------------------------------------------------------------------------------------




--------------------------------------- Iteration      1(  17)  ---------------------------------------


    POTLOK:  cpu time    0.0973: real time    0.0974
    SETDIJ:  cpu time    0.0369: real time    0.0370
    EDDIAG:  cpu time    3.2396: real time    3.2423
  RMM-DIIS:  cpu time   13.0459: real time   13.0560
    ORTHCH:  cpu time    0.6200: real time    0.6204
       DOS:  cpu time    0.0036: real time    0.0036
    CHARGE:  cpu time    0.7138: real time    0.7143
    MIXING:  cpu time    0.0030: real time    0.0030
    --------------------------------------------
      LOOP:  cpu time   17.7601: real time   17.7740

 eigenvalue-minimisations  : 15522
 total energy-change (2. order) :-0.5922839E-03  (-0.1972196E-03)
 number of electron     128.0000321 magnetization       0.4914997
 augmentation part       67.4800832 magnetization       0.1657161

 Broyden mixing:
  rms(total) = 0.17535E-01    rms(broyden)= 0.17534E-01
  rms(prec ) = 0.28390E-01
  weight for this iteration     100.00

 eigenvalues of (default mixing * dielectric matrix)
  average eigenvalue GAMMA=   0.8629
  2.3002  2.3002  1.0559  1.0559  0.7468  0.7175  0.7175  0.5786  0.1356  0.2191
  0.2777  0.2502

 Free energy of the ion-electron system (eV)
  ---------------------------------------------------
  alpha Z        PSCENC =       588.81641228
  Ewald energy   TEWEN  =     -9622.65973916
  -Hartree energ DENC   =     -2776.37697518
  -exchange      EXHF   =         0.00000000
  -V(xc)+E(xc)   XCENC  =        77.12705025
  PAW double counting   =     13743.44896529   -14093.47440401
  entropy T*S    EENTRO =        -0.00125506
  eigenvalues    EBANDS =       751.25716188
  atomic energy  EATOM  =     11229.46195210
  Solvation  Ediel_sol  =         0.00000000
  ---------------------------------------------------
  free energy    TOTEN  =      -102.40083162 eV

  energy without entropy =     -102.39957656  energy(sigma->0) =     -102.40020409


--------------------------------------------------------------------------------------------------------




--------------------------------------- Iteration      1(  18)  ---------------------------------------


    POTLOK:  cpu time    0.0976: real time    0.0977
    SETDIJ:  cpu time    0.0373: real time    0.0374
    EDDIAG:  cpu time    3.2440: real time    3.2467
  RMM-DIIS:  cpu time   11.2368: real time   11.2455
    ORTHCH:  cpu time    0.5783: real time    0.5787
       DOS:  cpu time    0.0037: real time    0.0038
    CHARGE:  cpu time    0.7133: real time    0.7137
    MIXING:  cpu time    0.0032: real time    0.0032
    --------------------------------------------
      LOOP:  cpu time   15.9142: real time   15.9267

 eigenvalue-minimisations  : 13770
 total energy-change (2. order) : 0.3474324E-04  (-0.4682402E-04)
 number of electron     128.0000321 magnetization       0.4931168
 augmentation part       67.4835022 magnetization       0.1693323

 Broyden mixing:
  rms(total) = 0.12540E-01    rms(broyden)= 0.12539E-01
  rms(prec ) = 0.21208E-01
  weight for this iteration     100.00

 eigenvalues of (default mixing * dielectric matrix)
  average eigenvalue GAMMA=   0.8339
  2.3420  2.3420  1.0780  1.0780  0.7286  0.7286  0.6937  0.5790  0.1356  0.2191
  0.2776  0.2503  0.3887

[...]
     84      13.8648      0.00000


--------------------------------------------------------------------------------------------------------


 soft charge-density along one line, spin component           1
         0         1         2         3         4         5         6         7         8         9
 total charge-density along one line

 soft charge-density along one line, spin component           2
         0         1         2         3         4         5         6         7         8         9
 total charge-density along one line

 pseudopotential strength for first ion, spin component:           1
 -0.911   0.002  -0.036  -0.002   0.000  -1.578   0.001  -0.034
  0.002  -0.900  -0.014  -0.008   0.024   0.001  -1.567  -0.013
 -0.036  -0.014  -0.873   0.014  -0.000  -0.034  -0.013  -1.541
 -0.002  -0.008   0.014  -0.900   0.024  -0.001  -0.008   0.013
  0.000   0.024  -0.000   0.024  -0.873   0.000   0.023  -0.000
 -1.578   0.001  -0.034  -0.001   0.000  -2.174   0.001  -0.032
  0.001  -1.567  -0.013  -0.008   0.023   0.001  -2.163  -0.013
 -0.034  -0.013  -1.541   0.013  -0.000  -0.032  -0.013  -2.138
 -0.001  -0.008   0.013  -1.567   0.023  -0.001  -0.008   0.013
  0.000   0.023  -0.000   0.023  -1.541   0.000   0.022  -0.000
 -0.009   0.005  -0.000  -0.005  -0.000  -0.008   0.005  -0.000
 -0.016   0.009  -0.000  -0.009  -0.000  -0.015   0.009  -0.000
 -0.003  -0.014  -0.001   0.001  -0.001  -0.003  -0.014  -0.001
  0.001   0.003  -0.015  -0.003   0.000   0.001   0.002  -0.014
  0.003   0.001   0.001  -0.014  -0.001   0.003   0.001   0.001
 -0.004  -0.016  -0.001   0.001  -0.001  -0.004  -0.015  -0.001
  0.001   0.004  -0.016  -0.004   0.000   0.001   0.003  -0.015
  0.004   0.001   0.001  -0.016  -0.001   0.004   0.001   0.001
 pseudopotential strength for first ion, spin component:           2
 -0.920   0.014   0.041  -0.014   0.000  -1.586   0.013   0.040
  0.014  -0.910   0.006   0.001  -0.013   0.013  -1.577   0.006
  0.041   0.006  -0.881  -0.006  -0.000   0.040   0.006  -1.549
 -0.014   0.001  -0.006  -0.910  -0.013  -0.013   0.001  -0.006
  0.000  -0.013  -0.000  -0.013  -0.909   0.000  -0.013  -0.000
 -1.586   0.013   0.040  -0.013   0.000  -2.181   0.013   0.038
  0.013  -1.577   0.006   0.001  -0.013   0.013  -2.173   0.006
  0.040   0.006  -1.549  -0.006  -0.000   0.038   0.006  -2.145
 -0.013   0.001  -0.006  -1.577  -0.013  -0.013   0.001  -0.006
  0.000  -0.013  -0.000  -0.013  -1.575   0.000  -0.012  -0.000
  0.006  -0.002  -0.003   0.002  -0.000   0.006  -0.002  -0.003
  0.010  -0.003  -0.005   0.003  -0.000   0.010  -0.003  -0.005
  0.002  -0.006  -0.000   0.000   0.000   0.002  -0.006   0.000
  0.000  -0.002  -0.013   0.002   0.000   0.000  -0.002  -0.013
 -0.002   0.000   0.000  -0.006   0.000  -0.002   0.000  -0.000
  0.003  -0.005   0.000   0.001   0.000   0.002  -0.005   0.000
  0.001  -0.003  -0.014   0.003   0.000   0.000  -0.002  -0.013
 -0.003   0.001  -0.000  -0.005   0.000  -0.002   0.000  -0.000
 total augmentation occupancy for first ion, spin component:           1
  1.971   0.030   0.070  -0.030   0.000  -0.625  -0.014  -0.055   0.014   0.000  -0.095   0.037  -0.015   0.039   0.015   0.001
  0.030   2.031  -0.015   0.122   0.007  -0.014  -0.670   0.011  -0.109  -0.008  -0.033   0.001   0.031  -0.008   0.052  -0.014
  0.070  -0.015   3.120   0.015  -0.000  -0.054   0.011  -1.431  -0.011  -0.000  -0.021   0.006   0.003  -0.088  -0.003   0.001
 -0.030   0.122   0.015   2.031   0.007   0.014  -0.109  -0.011  -0.670  -0.008   0.033  -0.001   0.052   0.008   0.031  -0.011
  0.000   0.007  -0.000   0.007   3.106   0.000  -0.008   0.000  -0.008  -1.417   0.000  -0.000  -0.011   0.000  -0.011   0.000
 -0.625  -0.014  -0.054   0.014   0.000   1.053   0.005   0.031  -0.005   0.000   0.060  -0.023   0.010  -0.021  -0.010  -0.000
 -0.014  -0.670   0.011  -0.109  -0.008   0.005   1.088  -0.008   0.099   0.008   0.021  -0.001   0.001   0.004  -0.030   0.001
 -0.055   0.011  -1.431  -0.011   0.000   0.031  -0.008   1.530   0.008   0.000   0.020  -0.005  -0.001   0.082   0.001  -0.000
  0.014  -0.109  -0.011  -0.670  -0.008  -0.005   0.099   0.008   1.088   0.008  -0.021   0.001  -0.030  -0.004   0.001   0.007
 -0.000  -0.008  -0.000  -0.008  -1.417   0.000   0.008   0.000   0.008   1.508   0.000   0.000   0.008  -0.000   0.008  -0.000
 -0.095  -0.033  -0.021   0.033   0.000   0.060   0.021   0.020  -0.021  -0.000   2.361  -0.330  -0.002   0.058   0.002   0.000
  0.037   0.001   0.006  -0.001  -0.000  -0.023  -0.001  -0.005   0.001   0.000  -0.330   0.058   0.000   0.004  -0.000  -0.000
 -0.015   0.031   0.003   0.052  -0.011   0.010   0.001  -0.001  -0.030   0.008  -0.002   0.000   0.305   0.001   0.000  -0.032
  0.039  -0.008  -0.088   0.008   0.000  -0.021   0.004   0.082  -0.004   0.000   0.058   0.004   0.001   0.310  -0.001  -0.000
  0.015   0.052  -0.003   0.031  -0.011  -0.010  -0.030   0.001   0.001   0.008   0.002  -0.000   0.000  -0.001   0.305  -0.002
  0.001  -0.014   0.001  -0.011   0.000  -0.000   0.001  -0.000   0.007  -0.000   0.000  -0.000  -0.032  -0.000  -0.002   0.004
 -0.010   0.000  -0.006  -0.000  -0.000   0.007  -0.000  -0.009   0.000  -0.000  -0.006  -0.001  -0.000  -0.033   0.000   0.000
 -0.001  -0.011  -0.001  -0.014   0.000   0.000   0.007   0.000   0.001  -0.000  -0.000   0.000  -0.002   0.000  -0.032   0.001
 total augmentation occupancy for first ion, spin component:           2
 -0.084  -0.074   0.385   0.074  -0.000   0.070   0.085  -0.214  -0.085  -0.000   0.110  -0.004   0.053  -0.004  -0.053  -0.002
 -0.074  -0.025   0.075  -0.207  -0.191   0.085   0.019  -0.034   0.194   0.109  -0.061   0.002   0.087  -0.043  -0.005  -0.003
  0.385   0.075  -0.016  -0.075   0.000  -0.218  -0.034   0.012   0.034   0.000  -0.023   0.001  -0.009  -0.048   0.009  -0.000
  0.074  -0.207  -0.075  -0.025  -0.191  -0.085   0.194   0.034   0.019   0.109   0.061  -0.002  -0.005   0.043   0.087   0.000
  0.000  -0.191   0.000  -0.191  -0.146  -0.000   0.110  -0.000   0.110   0.086   0.000  -0.000  -0.018  -0.000  -0.018   0.000
  0.070   0.085  -0.218  -0.085  -0.000  -0.054  -0.085   0.101   0.085  -0.000  -0.075   0.014  -0.036   0.000   0.036   0.004
  0.085   0.019  -0.034   0.194   0.110  -0.085  -0.013   0.008  -0.170  -0.053   0.044  -0.008  -0.056   0.028   0.001   0.006
 -0.214  -0.034   0.012   0.034  -0.000   0.101   0.008  -0.006  -0.008   0.000   0.016  -0.003   0.009   0.045  -0.009   0.000
 -0.085   0.194   0.034   0.019   0.110   0.085  -0.170  -0.008  -0.013  -0.053  -0.044   0.008   0.001  -0.028  -0.056  -0.000
  0.000   0.109   0.000   0.109   0.086  -0.000  -0.053   0.000  -0.053  -0.043   0.000   0.000   0.018   0.000   0.018  -0.000
  0.110  -0.061  -0.023   0.061  -0.000  -0.075   0.044   0.016  -0.044   0.000   0.006   0.001  -0.001   0.008   0.001  -0.002
 -0.004   0.002   0.001  -0.002  -0.000   0.014  -0.008  -0.003   0.008   0.000   0.001   0.000  -0.003   0.005   0.003   0.000
  0.053   0.087  -0.009  -0.005  -0.018  -0.036  -0.056   0.009   0.001   0.018  -0.001  -0.003  -0.001   0.009  -0.013  -0.000
 -0.004  -0.043  -0.048   0.043  -0.000   0.000   0.028   0.045  -0.028   0.000   0.008   0.005   0.009   0.005  -0.009  -0.001
 -0.053  -0.005   0.009   0.087  -0.018   0.036   0.001  -0.009  -0.056   0.018   0.001   0.003  -0.013  -0.009  -0.001   0.002
 -0.002  -0.003  -0.000   0.000   0.000   0.004   0.006   0.000  -0.000  -0.000  -0.002   0.000  -0.000  -0.001   0.002  -0.000
 -0.002   0.002  -0.001  -0.002   0.000   0.001  -0.003  -0.000   0.003   0.000   0.003  -0.001  -0.001  -0.000   0.001   0.000
  0.002   0.000   0.000  -0.003   0.000  -0.004  -0.000  -0.000   0.006  -0.000   0.002  -0.000   0.002   0.001  -0.000  -0.000


------------------------ aborting loop because EDIFF is reached ----------------------------------------





 total charge     

# of ion       s       p       d       tot
------------------------------------------
    1        0.512   0.507   8.407   9.426
    2        0.513   0.505   8.418   9.435
    3        0.512   0.508   8.431   9.451
    4        0.513   0.507   8.407   9.427
    5        0.513   0.507   8.407   9.427
    6        0.512   0.508   8.431   9.451
    7        0.513   0.505   8.418   9.435
    8        0.512   0.507   8.407   9.426
    9        0.342   0.357   4.978   5.678
   10        0.336   0.343   4.998   5.678
   11        0.367   0.401   4.994   5.761
   12        0.376   0.395   5.009   5.780
   13        0.368   0.401   5.054   5.823
   14        0.378   0.403   4.963   5.744
   15        1.298   1.983   0.390   3.670
   16        1.302   1.973   0.392   3.667
--------------------------------------------------
tot          8.866  10.309  98.105 117.280



 magnetization (x)

# of ion       s       p       d       tot
------------------------------------------
    1        0.004   0.004  -0.018  -0.010
    2        0.003  -0.003  -0.027  -0.027
    3        0.003   0.002  -0.020  -0.015
    4        0.004   0.006   0.003   0.013
    5        0.004   0.006   0.003   0.013
    6        0.003   0.002  -0.020  -0.015
    7        0.003  -0.003  -0.027  -0.027
    8        0.004   0.004  -0.018  -0.010
    9        0.032   0.055   3.329   3.415
   10        0.030   0.016   3.443   3.489
   11       -0.024  -0.023  -3.129  -3.176
   12       -0.026  -0.011  -3.274  -3.310
   13       -0.019  -0.035  -3.157  -3.211
   14        0.026   0.056   3.225   3.306
   15        0.001  -0.065   0.008  -0.055
   16        0.007  -0.055  -0.002  -0.050
--------------------------------------------------
tot          0.055  -0.045   0.320   0.330

    CHARGE:  cpu time    0.7207: real time    0.7211
    FORLOC:  cpu time    0.0066: real time    0.0066
    FORNL :  cpu time    5.4154: real time    5.4193
    STRESS:  cpu time   16.1716: real time   16.1836
    FORCOR:  cpu time    0.1002: real time    0.1003
    FORHAR:  cpu time    0.0163: real time    0.0163
    MIXING:  cpu time    0.0017: real time    0.0017
    OFIELD:  cpu time    0.0000: real time    0.0000

  FORCE on cell =-STRESS in cart. coord.  units (eV):
  Direction    XX          YY          ZZ          XY          YZ          ZX
  --------------------------------------------------------------------------------------
  Alpha Z   588.81641   588.81641   588.81641
  Ewald   -3095.58945 -3095.58945 -3431.56942    -0.00000    -0.00000     0.00000
  Hartree  1028.91953  1028.91953   718.55455    -0.00000    -0.00000    -0.00000
  E(xc)    -675.69082  -675.69082  -676.01512    -0.00000     0.00000     0.00000
  Local    -356.85670  -356.85670   287.14600     0.00000     0.00000    -0.00000
  n-local  -125.99710  -121.45882  -122.70643    -0.45920    -1.14674     0.28998
  augment  1573.69278  1573.69278  1575.62391     0.00000    -0.00000    -0.00000
  Kinetic  1069.98862  1088.14335  1081.66052     0.94928     0.52677     1.55730
  Fock        0.00000     0.00000     0.00000     0.00000     0.00000     0.00000
  -------------------------------------------------------------------------------------
  Total      18.62977    18.62977    21.51043    -0.00000     0.00000     0.00000
  in kB     156.18905   156.18905   180.34003    -0.00000     0.00000     0.00000
  external pressure =      164.24 kB  Pullay stress =        0.00 kB


 VOLUME and BASIS-vectors are now :
 -----------------------------------------------------------------------------
  energy-cutoff  :      550.00
  volume of cell :      191.10
      direct lattice vectors                 reciprocal lattice vectors
     5.760000000  0.000000000  0.000000000     0.173611111  0.000000000  0.000000000
     0.000000000  5.760000000  0.000000000     0.000000000  0.173611111  0.000000000
     0.000000000  0.000000000  5.760000000     0.000000000  0.000000000  0.173611111

  length of vectors
     5.760000000  5.760000000  5.760000000     0.173611111  0.173611111  0.173611111


 FORCES acting on ions
    electron-ion (+dipol)            ewald-force                    non-local-force                 convergence-correction
 -----------------------------------------------------------------------------------------------
   0.475E+01 -.475E+01 0.179E+03   -.477E+01 0.477E+01 -.176E+03   0.201E-01 -.201E-01 -.288E+01   0.954E-02 -.954E-02 -.166E-01
   -.475E+01 -.475E+01 0.179E+03   0.477E+01 0.477E+01 -.176E+03   -.201E-01 -.201E-01 -.288E+01   -.954E-02 -.954E-02 -.166E-01
   0.475E+01 0.475E+01 0.179E+03   -.477E+01 -.477E+01 -.176E+03   0.201E-01 0.201E-01 -.288E+01   0.954E-02 0.954E-02 -.166E-01
   -.475E+01 0.475E+01 0.179E+03   0.477E+01 -.477E+01 -.176E+03   -.201E-01 0.201E-01 -.288E+01   -.954E-02 0.954E-02 -.166E-01
   0.475E+01 -.475E+01 -.179E+03   -.477E+01 0.477E+01 0.176E+03   0.201E-01 -.201E-01 0.288E+01   0.954E-02 -.954E-02 0.166E-01
   -.475E+01 -.475E+01 -.179E+03   0.477E+01 0.477E+01 0.176E+03   -.201E-01 -.201E-01 0.288E+01   -.954E-02 -.954E-02 0.166E-01
   0.475E+01 0.475E+01 -.179E+03   -.477E+01 -.477E+01 0.176E+03   0.201E-01 0.201E-01 0.288E+01   0.954E-02 0.954E-02 0.166E-01
   -.475E+01 0.475E+01 -.179E+03   0.477E+01 -.477E+01 0.176E+03   -.201E-01 0.201E-01 0.288E+01   -.954E-02 0.954E-02 0.166E-01
   0.204E-12 0.271E-13 -.582E-12   -.287E-13 0.491E-13 0.651E-13   0.000E+00 0.000E+00 0.000E+00   0.988E-12 -.483E-12 0.221E-12
   -.374E-13 0.168E-12 -.859E-13   -.243E-14 0.506E-13 0.824E-14   0.000E+00 0.000E+00 0.000E+00   -.106E-11 0.623E-12 -.131E-12
   -.342E-13 -.244E-13 0.220E-12   -.591E-14 -.103E-12 -.110E-13   0.000E+00 0.000E+00 0.000E+00   0.146E-11 0.676E-12 -.625E-12
   0.190E-12 -.146E-13 0.159E-11   0.176E-12 0.128E-13 -.110E-12   0.000E+00 0.000E+00 0.000E+00   -.145E-11 0.681E-12 -.623E-12
   0.198E-12 0.121E-12 0.962E-12   -.187E-12 0.280E-13 0.458E-13   0.000E+00 0.000E+00 0.000E+00   -.133E-11 -.504E-12 -.327E-12
   -.435E-13 0.147E-12 0.214E-12   -.396E-13 -.556E-13 0.173E-13   0.000E+00 0.000E+00 0.000E+00   0.133E-11 -.524E-12 -.314E-12
   -.105E-13 -.100E-13 -.286E-13   -.708E-14 0.771E-14 -.794E-14   0.000E+00 0.000E+00 0.000E+00   -.233E-12 -.123E-12 0.103E-12
   0.863E-14 -.501E-12 0.192E-13   0.412E-13 -.121E-13 0.134E-13   0.000E+00 0.000E+00 0.000E+00   0.231E-12 0.116E-12 0.508E-14
 -----------------------------------------------------------------------------------------------
   0.118E-10 -.152E-11 -.162E-10   -.383E-16 0.258E-14 0.489E-13   -.694E-17 0.694E-17 0.444E-15   0.327E-12 0.611E-11 0.575E-11


 POSITION                                       TOTAL-FORCE (eV/Angst)
 -----------------------------------------------------------------------------------
      1.44453      1.43547      1.53590         0.002856     -0.002856      0.006662
      4.31547      1.43547      1.53590        -0.002856     -0.002856      0.006662
      1.44453      4.32453      1.53590         0.002856      0.002856      0.006662
      4.31547      4.32453      1.53590        -0.002856      0.002856      0.006662
      1.44453      1.43547      4.22410         0.002856     -0.002856     -0.006662
      4.31547      1.43547      4.22410        -0.002856     -0.002856     -0.006662
      1.44453      4.32453      4.22410         0.002856      0.002856     -0.006662
      4.31547      4.32453      4.22410        -0.002856      0.002856     -0.006662
      2.88000      0.00000      0.00000        -0.000000      0.000000     -0.000000
      0.00000      2.88000      0.00000        -0.000000      0.000000     -0.000000
      0.00000      0.00000      2.88000        -0.000000      0.000000     -0.000000
      2.88000      0.00000      2.88000        -0.000000      0.000000     -0.000000
      2.88000      2.88000      2.88000        -0.000000      0.000000     -0.000000
      0.00000      2.88000      2.88000        -0.000000      0.000000     -0.000000
      0.00000      0.00000      0.00000        -0.000000      0.000000     -0.000000
      2.88000      2.88000      0.00000        -0.000000      0.000000     -0.000000
 -----------------------------------------------------------------------------------
    total drift:                                0.000000      0.000000     -0.000000


--------------------------------------------------------------------------------------------------------



  FREE ENERGIE OF THE ION-ELECTRON SYSTEM (eV)
  ---------------------------------------------------
  free  energy   TOTEN  =      -102.40099155 eV

  energy  without entropy=     -102.39971171  energy(sigma->0) =     -102.40035163

 d Force = 0.6693221E-04[ 0.312E-04, 0.103E-03]  d Energy = 0.6422741E-04 0.270E-05
 d Force = 0.2004317E-01[ 0.154E-01, 0.247E-01]  d Ewald  = 0.2004317E-01-0.137E-08


--------------------------------------------------------------------------------------------------------


    POTLOK:  cpu time    0.1357: real time    0.1358


--------------------------------------------------------------------------------------------------------




--------------------------------------------------------------------------------------------------------


  
 reached required accuracy - stopping structural energy minimisation
     LOOP+:  cpu time   94.3969: real time   94.4988
    4ORBIT:  cpu time    0.0000: real time    0.0000



 total charge     

# of ion       s       p       d       tot
------------------------------------------
    1        0.512   0.507   8.407   9.426
    2        0.513   0.505   8.418   9.435
    3        0.512   0.508   8.431   9.451
    4        0.513   0.507   8.407   9.427
    5        0.513   0.507   8.407   9.427
    6        0.512   0.508   8.431   9.451
    7        0.513   0.505   8.418   9.435
    8        0.512   0.507   8.407   9.426
    9        0.342   0.357   4.978   5.678
   10        0.336   0.343   4.998   5.678
   11        0.367   0.401   4.994   5.761
   12        0.376   0.395   5.009   5.780
   13        0.368   0.401   5.054   5.823
   14        0.378   0.403   4.963   5.744
   15        1.298   1.983   0.390   3.670
   16        1.302   1.973   0.392   3.667
--------------------------------------------------
tot          8.866  10.309  98.105 117.280



 magnetization (x)

# of ion       s       p       d       tot
------------------------------------------
    1        0.004   0.004  -0.018  -0.010
    2        0.003  -0.003  -0.027  -0.027
    3        0.003   0.002  -0.020  -0.015
    4        0.004   0.006   0.003   0.013
    5        0.004   0.006   0.003   0.013
    6        0.003   0.002  -0.020  -0.015
    7        0.003  -0.003  -0.027  -0.027
    8        0.004   0.004  -0.018  -0.010
    9        0.032   0.055   3.329   3.415
   10        0.030   0.016   3.443   3.489
   11       -0.024  -0.023  -3.129  -3.176
   12       -0.026  -0.011  -3.274  -3.310
   13       -0.019  -0.035  -3.157  -3.211
   14        0.026   0.056   3.225   3.306
   15        0.001  -0.065   0.008  -0.055
   16        0.007  -0.055  -0.002  -0.050
--------------------------------------------------
tot          0.055  -0.045   0.320   0.330


 total amount of memory used by VASP MPI-rank0    98881. kBytes
=======================================================================

   base      :      30000. kBytes
   nonlr-proj:       7535. kBytes
   fftplans  :       1269. kBytes
   grid      :       6573. kBytes
   one-center:        497. kBytes
   wavefun   :      53007. kBytes

  
  
 General timing and accounting informations for this job:
 ========================================================
  
                  Total CPU time used (sec):      603.409
                            User time (sec):      572.670
                          System time (sec):       30.738
                         Elapsed time (sec):      605.556
  
                   Maximum memory used (kb):      136476.
                   Average memory used (kb):           0.
  
                          Minor page faults:     11586106
                          Major page faults:            7
                 Voluntary context switches:         2465
