 vasp.5.4.4.18Apr17-6-g9f103f2a35 (build May 21 2018 20:56:50) complex           
 executed on             LinuxGNU date 2021.10.15  15:49:33
 running on   12 total cores
 distrk:  each k-point on   12 cores,    1 groups
 distr:  one band on NCORES_PER_BAND=   1 cores,   12 groups


--------------------------------------------------------------------------------------------------------


 INCAR:
 POTCAR:    PAW_PBE Ni 02Aug2007                  
 POTCAR:    PAW_PBE Mn 06Sep2000                  
 POTCAR:    PAW_PBE In 08Apr2002                  

 ----------------------------------------------------------------------------- 
|                                                                             |
|           W    W    AA    RRRRR   N    N  II  N    N   GGGG   !!!           |
|           W    W   A  A   R    R  NN   N  II  NN   N  G    G  !!!           |
|           W    W  A    A  R    R  N N  N  II  N N  N  G       !!!           |
|           W WW W  AAAAAA  RRRRR   N  N N  II  N  N N  G  GGG   !            |
|           WW  WW  A    A  R   R   N   NN  II  N   NN  G    G                |
|           W    W  A    A  R    R  N    N  II  N    N   GGGG   !!!           |
|                                                                             |
|      For optimal performance we recommend to set                            |
|        NCORE= 4 - approx SQRT( number of cores)                             |
|      NCORE specifies how many cores store one orbital (NPAR=cpu/NCORE).     |
|      This setting can  greatly improve the performance of VASP for DFT.     |
|      The default,   NCORE=1            might be grossly inefficient         |
|      on modern multi-core architectures or massively parallel machines.     |
|      Do your own testing !!!!                                               |
|      Unfortunately you need to use the default for GW and RPA calculations. |
|      (for HF NCORE is supported but not extensively tested yet)             |
|                                                                             |
 ----------------------------------------------------------------------------- 

 POTCAR:    PAW_PBE Ni 02Aug2007                  
   VRHFIN =Ni:                                                                  
   LEXCH  = PE                                                                  
   EATOM  =  1077.6739 eV,   79.2068 Ry                                         
                                                                                
   TITEL  = PAW_PBE Ni 02Aug2007                                                
   LULTRA =        F    use ultrasoft PP ?                                      
   IUNSCR =        1    unscreen: 0-lin 1-nonlin 2-no                           
   RPACOR =    2.000    partial core radius                                     
   POMASS =   58.690; ZVAL   =   10.000    mass and valenz                      
   RCORE  =    2.300    outmost cutoff radius                                   
   RWIGS  =    2.430; RWIGS  =    1.286    wigner-seitz radius (au A)           
   ENMAX  =  269.532; ENMIN  =  202.149 eV                                      
   RCLOC  =    1.201    cutoff for local pot                                    
   LCOR   =        T    correct aug charges                                     
   LPAW   =        T    paw PP                                                  
   EAUG   =  544.565                                                            
   DEXC   =    0.000                                                            
   RMAX   =    2.357    core radius for proj-oper                               
   RAUG   =    1.300    factor for augmentation sphere                          
   RDEP   =    2.390    radius for radial grids                                 
   RDEPT  =    1.838    core radius for aug-charge                              
                                                                                
   Atomic configuration                                                         
    9 entries                                                                   
     n  l   j            E        occ.                                          
     1  0  0.50     -8206.4253   2.0000                                         
     2  0  0.50      -976.1748   2.0000                                         
     2  1  1.50      -839.0571   6.0000                                         
     3  0  0.50      -105.9991   2.0000                                         
     3  1  1.50       -66.4603   6.0000                                         
     3  2  2.50        -4.6458   9.0000                                         
     4  0  0.50        -4.4926   1.0000                                         
     4  1  1.50        -4.0817   0.0000                                         
     4  3  2.50        -1.3606   0.0000                                         
   Description                                                                  
     l       E           TYP  RCUT    TYP  RCUT                                 
     2     -4.6457903     23  2.300                                             
     2     -6.0063729     23  2.300                                             
     0     -4.4925590     23  2.300                                             
     0      5.0102601     23  2.300                                             
     1     -2.7211652     23  2.300                                             
     1     16.5183231     23  2.300                                             
  local pseudopotential read in
  partial core-charges read in
  partial kinetic energy density read in
  atomic valenz-charges read in
  non local Contribution for L=           2  read in
    real space projection operators read in
  non local Contribution for L=           2  read in
    real space projection operators read in
  non local Contribution for L=           0  read in
    real space projection operators read in
  non local Contribution for L=           0  read in
    real space projection operators read in
  non local Contribution for L=           1  read in
    real space projection operators read in
  non local Contribution for L=           1  read in
    real space projection operators read in
    PAW grid and wavefunctions read in

   number of l-projection  operators is LMAX  =           6
   number of lm-projection operators is LMMAX =          18

 POTCAR:    PAW_PBE Mn 06Sep2000                  
   VRHFIN =Mn: d6 s1                                                            
   LEXCH  = PE                                                                  
   EATOM  =   416.7541 eV,   30.6306 Ry                                         
                                                                                
   TITEL  = PAW_PBE Mn 06Sep2000                                                
   LULTRA =        F    use ultrasoft PP ?                                      
   IUNSCR =        1    unscreen: 0-lin 1-nonlin 2-no                           
   RPACOR =    2.000    partial core radius                                     
   POMASS =   54.938; ZVAL   =    7.000    mass and valenz                      
   RCORE  =    2.300    outmost cutoff radius                                   
   RWIGS  =    2.500; RWIGS  =    1.323    wigner-seitz radius (au A)           
   ENMAX  =  269.864; ENMIN  =  202.398 eV                                      
   RCLOC  =    1.725    cutoff for local pot                                    
   LCOR   =        T    correct aug charges                                     
   LPAW   =        T    paw PP                                                  
   EAUG   =  500.711                                                            
   DEXC   =    0.000                                                            
   RMAX   =    2.343    core radius for proj-oper                               
   RAUG   =    1.300    factor for augmentation sphere                          
   RDEP   =    2.338    radius for radial grids                                 
   RDEPT  =    1.911    core radius for aug-charge                              
                                                                                
   Atomic configuration                                                         
    9 entries                                                                   
     n  l   j            E        occ.                                          
     1  0  0.50     -6424.8288   2.0000                                         
     2  0  0.50      -739.1154   2.0000                                         
     2  1  1.50      -625.3949   6.0000                                         
     3  0  0.50       -81.6100   2.0000                                         
     3  1  1.50       -50.4667   6.0000                                         
     3  2  2.50        -3.3745   6.0000                                         
     4  0  0.50        -4.1331   1.0000                                         
     4  1  0.50        -4.0817   0.0000                                         
     4  3  2.50        -1.3606   0.0000                                         
   Description                                                                  
     l       E           TYP  RCUT    TYP  RCUT                                 
     2     -3.3744664     23  2.300                                             
     2     -4.7350490     23  2.300                                             
     0     -4.1331408     23  2.300                                             
     0      7.6656614     23  2.300                                             
     1     -2.7211652     23  2.300                                             
     1     20.4087390     23  2.300                                             
  local pseudopotential read in
  partial core-charges read in
  partial kinetic energy density read in
  atomic valenz-charges read in
  non local Contribution for L=           2  read in
    real space projection operators read in
  non local Contribution for L=           2  read in
    real space projection operators read in
  non local Contribution for L=           0  read in
    real space projection operators read in
  non local Contribution for L=           0  read in
    real space projection operators read in
  non local Contribution for L=           1  read in
    real space projection operators read in
  non local Contribution for L=           1  read in
    real space projection operators read in
    PAW grid and wavefunctions read in

   number of l-projection  operators is LMAX  =           6
   number of lm-projection operators is LMMAX =          18

 POTCAR:    PAW_PBE In 08Apr2002                  
   VRHFIN =In: s2p1                                                             
   LEXCH  = PE                                                                  
   EATOM  =    53.7908 eV,    3.9535 Ry                                         
                                                                                
   TITEL  = PAW_PBE In 08Apr2002                                                
   LULTRA =        F    use ultrasoft PP ?                                      
   IUNSCR =        1    unscreen: 0-lin 1-nonlin 2-no                           
   RPACOR =    2.400    partial core radius                                     
   POMASS =  114.820; ZVAL   =    3.000    mass and valenz                      
   RCORE  =    3.100    outmost cutoff radius                                   
   RWIGS  =    3.170; RWIGS  =    1.677    wigner-seitz radius (au A)           
   ENMAX  =   95.934; ENMIN  =   71.951 eV                                      
   ICORE  =        3    local potential                                         
   LCOR   =        T    correct aug charges                                     
   LPAW   =        T    paw PP                                                  
   EAUG   =  237.125                                                            
   DEXC   =    0.000                                                            
   RMAX   =    3.168    core radius for proj-oper                               
   RAUG   =    1.300    factor for augmentation sphere                          
   RDEP   =    3.187    radius for radial grids                                 
   RDEPT  =    2.711    core radius for aug-charge                              
                                                                                
   Atomic configuration                                                         
   13 entries                                                                   
     n  l   j            E        occ.                                          
     1  0  0.50    -27747.9169   2.0000                                         
     2  0  0.50     -4154.4438   2.0000                                         
     2  1  1.50     -3728.4305   6.0000                                         
     3  0  0.50      -788.3680   2.0000                                         
     3  1  1.50      -648.9215   6.0000                                         
     3  2  2.50      -432.5893  10.0000                                         
     4  0  0.50      -119.6363   2.0000                                         
     4  1  1.50       -78.1086   6.0000                                         
     4  2  2.50       -18.6227  10.0000                                         
     5  0  0.50        -8.2107   2.0000                                         
     5  1  0.50        -2.5185   1.0000                                         
     5  2  2.50        -1.3606   0.0000                                         
     4  3  2.50        -2.7212   0.0000                                         
   Description                                                                  
     l       E           TYP  RCUT    TYP  RCUT                                 
     0     -8.2107306     23  3.100                                             
     0     -6.1485975     23  3.100                                             
     1     -2.5184867     23  3.100                                             
     1      3.2427302     23  3.100                                             
     2     -1.3605826     23  3.100                                             
     3     -1.3605826     23  3.100                                             
  local pseudopotential read in
  partial core-charges read in
  partial kinetic energy density read in
  atomic valenz-charges read in
  non local Contribution for L=           0  read in
    real space projection operators read in
  non local Contribution for L=           0  read in
    real space projection operators read in
  non local Contribution for L=           1  read in
    real space projection operators read in
  non local Contribution for L=           1  read in
    real space projection operators read in
  non local Contribution for L=           2  read in
    real space projection operators read in
    PAW grid and wavefunctions read in

   number of l-projection  operators is LMAX  =           5
   number of lm-projection operators is LMMAX =          13

 Optimization of the real space projectors (new method)

 maximal supplied QI-value         = 16.25
 optimisation between [QCUT,QGAM] = [ 11.86, 23.89] = [ 39.41,159.82] Ry 
 Optimized for a Real-space Cutoff    1.33 Angstroem

   l    n(q)    QCUT    max X(q) W(low)/X(q) W(high)/X(q)  e(spline) 
   2      9    11.864    60.317    0.21E-03    0.51E-03    0.25E-06
   2      9    11.864    55.921    0.21E-03    0.51E-03    0.26E-06
   0      9    11.864    51.690    0.22E-03    0.30E-04    0.17E-06
   0      9    11.864    30.015    0.20E-03    0.28E-04    0.15E-06
   1      9    11.864    18.849    0.76E-04    0.33E-03    0.17E-06
   1      9    11.864    14.624    0.60E-04    0.28E-03    0.15E-06
 Optimization of the real space projectors (new method)

 maximal supplied QI-value         = 16.25
 optimisation between [QCUT,QGAM] = [ 11.86, 23.89] = [ 39.41,159.82] Ry 
 Optimized for a Real-space Cutoff    1.36 Angstroem

   l    n(q)    QCUT    max X(q) W(low)/X(q) W(high)/X(q)  e(spline) 
   2      9    11.864   110.144    0.49E-03    0.50E-03    0.21E-06
   2      9    11.864   103.200    0.49E-03    0.51E-03    0.22E-06
   0     10    11.864    68.437    0.12E-03    0.41E-04    0.21E-06
   0     10    11.864    33.971    0.11E-03    0.36E-04    0.19E-06
   1      9    11.864    17.065    0.24E-03    0.26E-03    0.93E-07
   1      9    11.864    12.540    0.19E-03    0.20E-03    0.80E-07
 Optimization of the real space projectors (new method)

 maximal supplied QI-value         = 12.09
 optimisation between [QCUT,QGAM] = [ 11.97, 23.95] = [ 40.14,160.58] Ry 
 Optimized for a Real-space Cutoff    1.63 Angstroem

   l    n(q)    QCUT    max X(q) W(low)/X(q) W(high)/X(q)  e(spline) 
   0     12    11.973   106.980    0.33E-03    0.16E-03    0.25E-05
   0     12    11.973    81.086    0.37E-03    0.18E-03    0.28E-05
   1     11    11.973    53.097    0.22E-03    0.42E-03    0.40E-05
   1     11    11.973    32.621    0.20E-03    0.40E-03    0.37E-05
   2     11    11.973     8.820    0.30E-03    0.17E-03    0.41E-06
  PAW_PBE Ni 02Aug2007                  :
 energy of atom  1       EATOM=-1077.6739
 kinetic energy error for atom=    0.0027 (will be added to EATOM!!)
  PAW_PBE Mn 06Sep2000                  :
 energy of atom  2       EATOM= -416.7541
 kinetic energy error for atom=    0.0022 (will be added to EATOM!!)
  PAW_PBE In 08Apr2002                  :
 energy of atom  3       EATOM=  -53.7908
 kinetic energy error for atom=    0.0000 (will be added to EATOM!!)


 POSCAR: Ni2MnIn                                 
  positions in direct lattice
  velocities in cartesian coordinates
 exchange correlation table for  LEXCH =        8
   RHO(1)=    0.500       N(1)  =     2000
   RHO(2)=  100.500       N(2)  =     4000



--------------------------------------------------------------------------------------------------------


 ion  position               nearest neighbor table
   1  0.250  0.250  0.254-  12 2.57  13 2.57  14 2.57  16 2.58  15 2.59  11 2.60   9 2.60  10 2.60
                             5 2.94   3 2.98   2 2.98   3 2.99   2 2.99   5 3.03
   2  0.750  0.250  0.254-  12 2.57  13 2.57  14 2.57  16 2.58  15 2.59  11 2.60   9 2.60  10 2.60
                             6 2.94   4 2.98   1 2.98   4 2.99   1 2.99   6 3.03
   3  0.250  0.750  0.254-  12 2.57  13 2.57  14 2.57  16 2.58  15 2.59  11 2.60   9 2.60  10 2.60
                             7 2.94   4 2.98   1 2.98   4 2.99   1 2.99   7 3.03
   4  0.750  0.750  0.254-  12 2.57  13 2.57  14 2.57  16 2.58  15 2.59  11 2.60   9 2.60  10 2.60
                             8 2.94   3 2.98   2 2.98   2 2.99   3 2.99   8 3.03
   5  0.250  0.250  0.746-  12 2.57  13 2.57  14 2.57  16 2.58  15 2.59  11 2.60   9 2.60  10 2.60
                             1 2.94   6 2.98   7 2.98   7 2.99   6 2.99   1 3.03
   6  0.750  0.250  0.746-  12 2.57  13 2.57  14 2.57  16 2.58  15 2.59  11 2.60   9 2.60  10 2.60
                             2 2.94   5 2.98   8 2.98   8 2.99   5 2.99   2 3.03
   7  0.250  0.750  0.746-  12 2.57  13 2.57  14 2.57  16 2.58  15 2.59  11 2.60   9 2.60  10 2.60
                             3 2.94   5 2.98   8 2.98   8 2.99   5 2.99   3 3.03
   8  0.750  0.750  0.746-  12 2.57  13 2.57  14 2.57  16 2.58  15 2.59  11 2.60   9 2.60  10 2.60
                             4 2.94   6 2.98   7 2.98   6 2.99   7 2.99   4 3.03
   9  0.500  0.000  0.000-   1 2.60   2 2.60   3 2.60   4 2.60   5 2.60   6 2.60   7 2.60   8 2.60
                            10 2.98  13 2.98  15 2.98  13 2.98  10 2.98  15 2.98
  10  0.500  0.500  0.000-   1 2.60   2 2.60   3 2.60   4 2.60   5 2.60   6 2.60   7 2.60   8 2.60
                             9 2.98  11 2.98  16 2.98  16 2.98   9 2.98  11 2.98
  11  0.000  0.500  0.000-   1 2.60   2 2.60   3 2.60   4 2.60   5 2.60   6 2.60   7 2.60   8 2.60
                            10 2.98  14 2.98  15 2.98  14 2.98  15 2.98  10 2.98
  12  0.000  0.000  0.500-   1 2.57   2 2.57   3 2.57   4 2.57   5 2.57   6 2.57   7 2.57   8 2.57
                            13 2.98  14 2.98  15 2.98  15 2.98  14 2.98  13 2.98
  13  0.500  0.000  0.500-   1 2.57   2 2.57   3 2.57   4 2.57   5 2.57   6 2.57   7 2.57   8 2.57
                             9 2.98  12 2.98  16 2.98   9 2.98  16 2.98  12 2.98
  14  0.000  0.500  0.500-   1 2.57   2 2.57   3 2.57   4 2.57   5 2.57   6 2.57   7 2.57   8 2.57
                            11 2.98  12 2.98  16 2.98  11 2.98  12 2.98  16 2.98
  15  0.000  0.000  0.000-   1 2.59   2 2.59   3 2.59   4 2.59   5 2.59   6 2.59   7 2.59   8 2.59
                             9 2.98  11 2.98  12 2.98  12 2.98  11 2.98   9 2.98
  16  0.500  0.500  0.500-   1 2.58   2 2.58   3 2.58   4 2.58   5 2.58   6 2.58   7 2.58   8 2.58
                            10 2.98  13 2.98  14 2.98  10 2.98  13 2.98  14 2.98

  LATTYP: Found a simple cubic cell.
 ALAT       =     5.9688310295
  
  Lattice vectors:
  
 A1 = (   5.9688310295,   0.0000000000,   0.0000000000)
 A2 = (   0.0000000000,   5.9688310295,   0.0000000000)
 A3 = (   0.0000000000,   0.0000000000,   5.9688310295)


Analysis of symmetry for initial positions (statically):
=====================================================================
 Subroutine PRICEL returns:
 Original cell was already a primitive cell.
 

 Routine SETGRP: Setting up the symmetry group for a 
 simple cubic supercell.


 Subroutine GETGRP returns: Found 16 space group operations
 (whereof 16 operations were pure point group operations)
 out of a pool of 48 trial point group operations.


The static configuration has the point symmetry D_4h.


Analysis of symmetry for dynamics (positions and initial velocities):
=====================================================================
 Subroutine PRICEL returns:
 Original cell was already a primitive cell.
 

 Routine SETGRP: Setting up the symmetry group for a 
 simple cubic supercell.


 Subroutine GETGRP returns: Found 16 space group operations
 (whereof 16 operations were pure point group operations)
 out of a pool of 48 trial point group operations.


The dynamic configuration has the point symmetry D_4h.


Analysis of structural, dynamic, and magnetic symmetry:
=====================================================================
 Subroutine PRICEL returns:
 Original cell was already a primitive cell.
 

 Routine SETGRP: Setting up the symmetry group for a 
 simple cubic supercell.


 Subroutine GETGRP returns: Found 16 space group operations
 (whereof 16 operations were pure point group operations)
 out of a pool of 48 trial point group operations.


The magnetic configuration has the point symmetry D_4h.


 Subroutine INISYM returns: Found 16 space group operations
 (whereof 16 operations are pure point group operations),
 and found     1 'primitive' translations



 KPOINTS: k-points                                

Automatic generation of k-mesh.
Space group operators:
 irot       det(A)        alpha          n_x          n_y          n_z        tau_x        tau_y        tau_z
    1     1.000000     0.000000     1.000000     0.000000     0.000000     0.000000     0.000000     0.000000
    2    -1.000000     0.000000     1.000000     0.000000     0.000000     0.000000     0.000000     0.000000
    3     1.000000    90.000000     0.000000     0.000000    -1.000000     0.000000     0.000000     0.000000
    4    -1.000000    90.000000     0.000000     0.000000    -1.000000     0.000000     0.000000     0.000000
    5     1.000000   180.000000     0.000000     0.000000     1.000000     0.000000     0.000000     0.000000
    6    -1.000000   180.000000     0.000000     0.000000     1.000000     0.000000     0.000000     0.000000
    7     1.000000    90.000000     0.000000     0.000000     1.000000     0.000000     0.000000     0.000000
    8    -1.000000    90.000000     0.000000     0.000000     1.000000     0.000000     0.000000     0.000000
    9     1.000000   180.000000     1.000000     0.000000     0.000000     0.000000     0.000000     0.000000
   10    -1.000000   180.000000     1.000000     0.000000     0.000000     0.000000     0.000000     0.000000
   11     1.000000   180.000000     0.707107     0.707107     0.000000     0.000000     0.000000     0.000000
   12    -1.000000   180.000000     0.707107     0.707107     0.000000     0.000000     0.000000     0.000000
   13     1.000000   180.000000     0.000000     1.000000     0.000000     0.000000     0.000000     0.000000
   14    -1.000000   180.000000     0.000000     1.000000     0.000000     0.000000     0.000000     0.000000
   15     1.000000   180.000000     0.707107    -0.707107     0.000000     0.000000     0.000000     0.000000
   16    -1.000000   180.000000     0.707107    -0.707107     0.000000     0.000000     0.000000     0.000000
 
 Subroutine IBZKPT returns following result:
 ===========================================
 
 Found     40 irreducible k-points:
 
 Following reciprocal coordinates:
            Coordinates               Weight
  0.000000  0.000000  0.000000      1.000000
  0.142857  0.000000  0.000000      4.000000
  0.285714  0.000000  0.000000      4.000000
  0.428571  0.000000  0.000000      4.000000
  0.142857  0.142857  0.000000      4.000000
  0.285714  0.142857  0.000000      8.000000
  0.428571  0.142857  0.000000      8.000000
  0.285714  0.285714  0.000000      4.000000
  0.428571  0.285714  0.000000      8.000000
  0.428571  0.428571  0.000000      4.000000
  0.000000  0.000000  0.142857      2.000000
  0.142857  0.000000  0.142857      8.000000
  0.285714  0.000000  0.142857      8.000000
  0.428571  0.000000  0.142857      8.000000
  0.142857  0.142857  0.142857      8.000000
  0.285714  0.142857  0.142857     16.000000
  0.428571  0.142857  0.142857     16.000000
  0.285714  0.285714  0.142857      8.000000
  0.428571  0.285714  0.142857     16.000000
  0.428571  0.428571  0.142857      8.000000
  0.000000  0.000000  0.285714      2.000000
  0.142857  0.000000  0.285714      8.000000
  0.285714  0.000000  0.285714      8.000000
  0.428571  0.000000  0.285714      8.000000
  0.142857  0.142857  0.285714      8.000000
  0.285714  0.142857  0.285714     16.000000
  0.428571  0.142857  0.285714     16.000000
  0.285714  0.285714  0.285714      8.000000
  0.428571  0.285714  0.285714     16.000000
  0.428571  0.428571  0.285714      8.000000
  0.000000  0.000000  0.428571      2.000000
  0.142857  0.000000  0.428571      8.000000
  0.285714  0.000000  0.428571      8.000000
  0.428571  0.000000  0.428571      8.000000
  0.142857  0.142857  0.428571      8.000000
  0.285714  0.142857  0.428571     16.000000
  0.428571  0.142857  0.428571     16.000000
  0.285714  0.285714  0.428571      8.000000
  0.428571  0.285714  0.428571     16.000000
  0.428571  0.428571  0.428571      8.000000
 
 Following cartesian coordinates:
            Coordinates               Weight
  0.000000  0.000000  0.000000      1.000000
  0.137859  0.000000  0.000000      4.000000
  0.275718  0.000000  0.000000      4.000000
  0.413577  0.000000  0.000000      4.000000
  0.137859  0.137859  0.000000      4.000000
  0.275718  0.137859  0.000000      8.000000
  0.413577  0.137859  0.000000      8.000000
  0.275718  0.275718  0.000000      4.000000
  0.413577  0.275718  0.000000      8.000000
  0.413577  0.413577  0.000000      4.000000
  0.000000  0.000000  0.137859      2.000000
  0.137859  0.000000  0.137859      8.000000
  0.275718  0.000000  0.137859      8.000000
  0.413577  0.000000  0.137859      8.000000
  0.137859  0.137859  0.137859      8.000000
  0.275718  0.137859  0.137859     16.000000
  0.413577  0.137859  0.137859     16.000000
  0.275718  0.275718  0.137859      8.000000
  0.413577  0.275718  0.137859     16.000000
  0.413577  0.413577  0.137859      8.000000
  0.000000  0.000000  0.275718      2.000000
  0.137859  0.000000  0.275718      8.000000
  0.275718  0.000000  0.275718      8.000000
  0.413577  0.000000  0.275718      8.000000
  0.137859  0.137859  0.275718      8.000000
  0.275718  0.137859  0.275718     16.000000
  0.413577  0.137859  0.275718     16.000000
  0.275718  0.275718  0.275718      8.000000
  0.413577  0.275718  0.275718     16.000000
  0.413577  0.413577  0.275718      8.000000
  0.000000  0.000000  0.413577      2.000000
  0.137859  0.000000  0.413577      8.000000
  0.275718  0.000000  0.413577      8.000000
  0.413577  0.000000  0.413577      8.000000
  0.137859  0.137859  0.413577      8.000000
  0.275718  0.137859  0.413577     16.000000
  0.413577  0.137859  0.413577     16.000000
  0.275718  0.275718  0.413577      8.000000
  0.413577  0.275718  0.413577     16.000000
  0.413577  0.413577  0.413577      8.000000
 


--------------------------------------------------------------------------------------------------------




 Dimension of arrays:
   k-points           NKPTS =     40   k-points in BZ     NKDIM =     40   number of bands    NBANDS=     84
   number of dos      NEDOS =    301   number of ions     NIONS =     16
   non local maximal  LDIM  =      6   non local SUM 2l+1 LMDIM =     18
   total plane-waves  NPLWV =  46656
   max r-space proj   IRMAX =   4027   max aug-charges    IRDMAX=  24948
   dimension x,y,z NGX =    36 NGY =   36 NGZ =   36
   dimension x,y,z NGXF=    72 NGYF=   72 NGZF=   72
   support grid    NGXF=    72 NGYF=   72 NGZF=   72
   ions per type =               8   6   2
   NGX,Y,Z   is equivalent  to a cutoff of  10.03, 10.03, 10.03 a.u.
   NGXF,Y,Z  is equivalent  to a cutoff of  20.05, 20.05, 20.05 a.u.

 SYSTEM =  Testrun for NiMnIn                      
 POSCAR =  Ni2MnIn                                 

 Startparameter for this run:
   NWRITE =      2    write-flag & timer
   PREC   = normal    normal or accurate (medium, high low for compatibility)
   ISTART =      0    job   : 0-new  1-cont  2-samecut
   ICHARG =      2    charge: 1-file 2-atom 10-const
   ISPIN  =      2    spin polarized calculation?
   LNONCOLLINEAR =      F non collinear calculations
   LSORBIT =      F    spin-orbit coupling
   INIWAV =      1    electr: 0-lowe 1-rand  2-diag
   LASPH  =      F    aspherical Exc in radial PAW
   METAGGA=      F    non-selfconsistent MetaGGA calc.

 Electronic Relaxation 1
   ENCUT  =  550.0 eV  40.42 Ry    6.36 a.u.  11.41 11.41 11.41*2*pi/ulx,y,z
   ENINI  =  550.0     initial cutoff
   ENAUG  =  544.6 eV  augmentation charge cutoff
   NELM   =     60;   NELMIN=  2; NELMDL= -5     # of ELM steps 
   EDIFF  = 0.1E-04   stopping-criterion for ELM
   LREAL  =      T    real-space projection
   NLSPLINE    = F    spline interpolate recip. space projectors
   LCOMPAT=      F    compatible to vasp.4.4
   GGA_COMPAT  = T    GGA compatible to vasp.4.4-vasp.4.6
   LMAXPAW     = -100 max onsite density
   LMAXMIX     =    2 max onsite mixed and CHGCAR
   VOSKOWN=      0    Vosko Wilk Nusair interpolation
   ROPT   =   -0.00050  -0.00050  -0.00050
 Ionic relaxation
   EDIFFG = -.1E-01   stopping-criterion for IOM
   NSW    =   1000    number of steps for IOM
   NBLOCK =      1;   KBLOCK =   1000    inner block; outer block 
   IBRION =      2    ionic relax: 0-MD 1-quasi-New 2-CG
   NFREE  =      1    steps in history (QN), initial steepest desc. (CG)
   ISIF   =      2    stress and relaxation
   IWAVPR =     11    prediction:  0-non 1-charg 2-wave 3-comb
   ISYM   =      2    0-nonsym 1-usesym 2-fastsym
   LCORR  =      T    Harris-Foulkes like correction to forces

   POTIM  = 0.5000    time-step for ionic-motion
   TEIN   =    0.0    initial temperature
   TEBEG  =    0.0;   TEEND  =   0.0 temperature during run
   SMASS  =  -3.00    Nose mass-parameter (am)
   estimated Nose-frequenzy (Omega)   =  0.10E-29 period in steps =****** mass=  -0.814E-27a.u.
   SCALEE = 1.0000    scale energy and forces
   NPACO  =    256;   APACO  = 16.0  distance and # of slots for P.C.
   PSTRESS=    0.0 pullay stress

  Mass of Ions in am
   POMASS =  58.69 54.94114.82
  Ionic Valenz
   ZVAL   =  10.00  7.00  3.00
  Atomic Wigner-Seitz radii
   RWIGS  =  -1.00 -1.00 -1.00
  virtual crystal weights 
   VCA    =   1.00  1.00  1.00
   NELECT =     128.0000    total number of electrons
   NUPDOWN=      -1.0000    fix difference up-down

 DOS related values:
   EMIN   =  10.00;   EMAX   =-10.00  energy-range for DOS
   EFERMI =   0.00
   ISMEAR =     0;   SIGMA  =   0.02  broadening in eV -4-tet -1-fermi 0-gaus

 Electronic relaxation 2 (details)
   IALGO  =     68    algorithm
   LDIAG  =      T    sub-space diagonalisation (order eigenvalues)
   LSUBROT=      F    optimize rotation matrix (better conditioning)
   TURBO    =      0    0=normal 1=particle mesh
   IRESTART =      0    0=no restart 2=restart with 2 vectors
   NREBOOT  =      0    no. of reboots
   NMIN     =      0    reboot dimension
   EREF     =   0.00    reference energy to select bands
   IMIX   =      4    mixing-type and parameters
     AMIX     =   0.40;   BMIX     =  1.00
     AMIX_MAG =   1.60;   BMIX_MAG =  1.00
     AMIN     =   0.10
     WC   =   100.;   INIMIX=   1;  MIXPRE=   1;  MAXMIX= -45

 Intra band minimization:
   WEIMIN = 0.0010     energy-eigenvalue tresh-hold
   EBREAK =  0.30E-07  absolut break condition
   DEPER  =   0.30     relativ break condition  

   TIME   =   0.40     timestep for ELM

  volume/ion in A,a.u.               =      13.29        89.69
  Fermi-wavevector in a.u.,A,eV,Ry     =   1.382257  2.612087 25.995768  1.910635
  Thomas-Fermi vector in A             =   2.506965

 Write flags
   LWAVE        =      F    write WAVECAR
   LDOWNSAMPLE  =      F    k-point downsampling of WAVECAR
   LCHARG       =      T    write CHGCAR
   LVTOT        =      F    write LOCPOT, total local potential
   LVHAR        =      F    write LOCPOT, Hartree potential only
   LELF         =      F    write electronic localiz. function (ELF)
   LORBIT       =     11    0 simple, 1 ext, 2 COOP (PROOUT), +10 PAW based schemes


 Dipole corrections
   LMONO  =      F    monopole corrections only (constant potential shift)
   LDIPOL =      F    correct potential (dipole corrections)
   IDIPOL =      0    1-x, 2-y, 3-z, 4-all directions 
   EPSILON=  1.0000000 bulk dielectric constant

 Exchange correlation treatment:
   GGA     =    --    GGA type
   LEXCH   =     8    internal setting for exchange type
   VOSKOWN=      0    Vosko Wilk Nusair interpolation
   LHFCALC =     F    Hartree Fock is set to
   LHFONE  =     F    Hartree Fock one center treatment
   AEXX    =    0.0000 exact exchange contribution

 Linear response parameters
   LEPSILON=     F    determine dielectric tensor
   LRPA    =     F    only Hartree local field effects (RPA)
   LNABLA  =     F    use nabla operator in PAW spheres
   LVEL    =     F    velocity operator in full k-point grid
   LINTERFAST=   F  fast interpolation
   KINTER  =     0    interpolate to denser k-point grid
   CSHIFT  =0.1000    complex shift for real part using Kramers Kronig
   OMEGAMAX=  -1.0    maximum frequency
   DEG_THRESHOLD= 0.2000000E-02 threshold for treating states as degnerate
   RTIME   =   -0.100 relaxation time in fs
  (WPLASMAI=    0.000 imaginary part of plasma frequency in eV, 0.658/RTIME)
   DFIELD  = 0.0000000 0.0000000 0.0000000 field for delta impulse in time

 Orbital magnetization related:
   ORBITALMAG=     F  switch on orbital magnetization
   LCHIMAG   =     F  perturbation theory with respect to B field
   DQ        =  0.001000  dq finite difference perturbation B field
   LLRAUG    =     F  two centre corrections for induced B field



--------------------------------------------------------------------------------------------------------


 conjugate gradient relaxation of ions
 charge density and potential will be updated during run
 spin polarized calculation
 RMM-DIIS sequential band-by-band and
  variant of blocked Davidson during initial phase
 perform sub-space diagonalisation
    before iterative eigenvector-optimisation
 modified Broyden-mixing scheme, WC =      100.0
 initial mixing is a Kerker type mixing with AMIX =  0.4000 and BMIX =      1.0000
 Hartree-type preconditioning will be used
 using additional bands           20
 real space projection scheme for non local part
 use partial core corrections
 calculate Harris-corrections to forces   (improved forces if not selfconsistent)
 use gradient corrections 
 use of overlap-Matrix (Vanderbilt PP)
 Gauss-broadening in eV      SIGMA  =   0.02


--------------------------------------------------------------------------------------------------------


  energy-cutoff  :      550.00
  volume of cell :      212.65
      direct lattice vectors                 reciprocal lattice vectors
     5.968831030  0.000000000  0.000000000     0.167536993  0.000000000  0.000000000
     0.000000000  5.968831030  0.000000000     0.000000000  0.167536993  0.000000000
     0.000000000  0.000000000  5.968831030     0.000000000  0.000000000  0.167536993

  length of vectors
     5.968831030  5.968831030  5.968831030     0.167536993  0.167536993  0.167536993



 k-points in units of 2pi/SCALE and weight: k-points                                
   0.00000000  0.00000000  0.00000000       0.003
   0.13785901  0.00000000  0.00000000       0.012
   0.27571802  0.00000000  0.00000000       0.012
   0.41357703  0.00000000  0.00000000       0.012
   0.13785901  0.13785901  0.00000000       0.012
   0.27571802  0.13785901  0.00000000       0.023
   0.41357703  0.13785901  0.00000000       0.023
   0.27571802  0.27571802  0.00000000       0.012
   0.41357703  0.27571802  0.00000000       0.023
   0.41357703  0.41357703  0.00000000       0.012
   0.00000000  0.00000000  0.13785901       0.006
   0.13785901  0.00000000  0.13785901       0.023
   0.27571802  0.00000000  0.13785901       0.023
   0.41357703  0.00000000  0.13785901       0.023
   0.13785901  0.13785901  0.13785901       0.023
   0.27571802  0.13785901  0.13785901       0.047
   0.41357703  0.13785901  0.13785901       0.047
   0.27571802  0.27571802  0.13785901       0.023
   0.41357703  0.27571802  0.13785901       0.047
   0.41357703  0.41357703  0.13785901       0.023
   0.00000000  0.00000000  0.27571802       0.006
   0.13785901  0.00000000  0.27571802       0.023
   0.27571802  0.00000000  0.27571802       0.023
   0.41357703  0.00000000  0.27571802       0.023
   0.13785901  0.13785901  0.27571802       0.023
   0.27571802  0.13785901  0.27571802       0.047
   0.41357703  0.13785901  0.27571802       0.047
   0.27571802  0.27571802  0.27571802       0.023
   0.41357703  0.27571802  0.27571802       0.047
   0.41357703  0.41357703  0.27571802       0.023
   0.00000000  0.00000000  0.41357703       0.006
   0.13785901  0.00000000  0.41357703       0.023
   0.27571802  0.00000000  0.41357703       0.023
   0.41357703  0.00000000  0.41357703       0.023
   0.13785901  0.13785901  0.41357703       0.023
   0.27571802  0.13785901  0.41357703       0.047
   0.41357703  0.13785901  0.41357703       0.047
   0.27571802  0.27571802  0.41357703       0.023
   0.41357703  0.27571802  0.41357703       0.047
   0.41357703  0.41357703  0.41357703       0.023

 k-points in reciprocal lattice and weights: k-points                                
   0.00000000  0.00000000  0.00000000       0.003
   0.14285714  0.00000000  0.00000000       0.012
   0.28571429  0.00000000  0.00000000       0.012
   0.42857143  0.00000000  0.00000000       0.012
   0.14285714  0.14285714  0.00000000       0.012
   0.28571429  0.14285714  0.00000000       0.023
   0.42857143  0.14285714  0.00000000       0.023
   0.28571429  0.28571429  0.00000000       0.012
   0.42857143  0.28571429  0.00000000       0.023
   0.42857143  0.42857143  0.00000000       0.012
   0.00000000  0.00000000  0.14285714       0.006
   0.14285714  0.00000000  0.14285714       0.023
   0.28571429  0.00000000  0.14285714       0.023
   0.42857143  0.00000000  0.14285714       0.023
   0.14285714  0.14285714  0.14285714       0.023
   0.28571429  0.14285714  0.14285714       0.047
   0.42857143  0.14285714  0.14285714       0.047
   0.28571429  0.28571429  0.14285714       0.023
   0.42857143  0.28571429  0.14285714       0.047
   0.42857143  0.42857143  0.14285714       0.023
   0.00000000  0.00000000  0.28571429       0.006
   0.14285714  0.00000000  0.28571429       0.023
   0.28571429  0.00000000  0.28571429       0.023
   0.42857143  0.00000000  0.28571429       0.023
   0.14285714  0.14285714  0.28571429       0.023
   0.28571429  0.14285714  0.28571429       0.047
   0.42857143  0.14285714  0.28571429       0.047
   0.28571429  0.28571429  0.28571429       0.023
   0.42857143  0.28571429  0.28571429       0.047
   0.42857143  0.42857143  0.28571429       0.023
   0.00000000  0.00000000  0.42857143       0.006
   0.14285714  0.00000000  0.42857143       0.023
   0.28571429  0.00000000  0.42857143       0.023
   0.42857143  0.00000000  0.42857143       0.023
   0.14285714  0.14285714  0.42857143       0.023
   0.28571429  0.14285714  0.42857143       0.047
   0.42857143  0.14285714  0.42857143       0.047
   0.28571429  0.28571429  0.42857143       0.023
   0.42857143  0.28571429  0.42857143       0.047
   0.42857143  0.42857143  0.42857143       0.023

 position of ions in fractional coordinates (direct lattice) 
   0.24950324  0.24950324  0.25361817
   0.75049676  0.24950324  0.25361817
   0.24950324  0.75049676  0.25361817
   0.75049676  0.75049676  0.25361817
   0.24950324  0.24950324  0.74638183
   0.75049676  0.24950324  0.74638183
   0.24950324  0.75049676  0.74638183
   0.75049676  0.75049676  0.74638183
   0.50000000  0.00000000  0.00000000
   0.50000000  0.50000000  0.00000000
   0.00000000  0.50000000  0.00000000
   0.00000000  0.00000000  0.50000000
   0.50000000  0.00000000  0.50000000
   0.00000000  0.50000000  0.50000000
   0.00000000  0.00000000  0.00000000
   0.50000000  0.50000000  0.50000000

 position of ions in cartesian coordinates  (Angst):
   1.48924266  1.48924266  1.51380401
   4.47958837  1.48924266  1.51380401
   1.48924266  4.47958837  1.51380401
   4.47958837  4.47958837  1.51380401
   1.48924266  1.48924266  4.45502702
   4.47958837  1.48924266  4.45502702
   1.48924266  4.47958837  4.45502702
   4.47958837  4.47958837  4.45502702
   2.98441551  0.00000000  0.00000000
   2.98441551  2.98441551  0.00000000
   0.00000000  2.98441551  0.00000000
   0.00000000  0.00000000  2.98441551
   2.98441551  0.00000000  2.98441551
   0.00000000  2.98441551  2.98441551
   0.00000000  0.00000000  0.00000000
   2.98441551  2.98441551  2.98441551



--------------------------------------------------------------------------------------------------------


 k-point  1 :   0.0000 0.0000 0.0000  plane waves:    6235
 k-point  2 :   0.1429 0.0000 0.0000  plane waves:    6227
 k-point  3 :   0.2857 0.0000 0.0000  plane waves:    6243
 k-point  4 :   0.4286 0.0000 0.0000  plane waves:    6238
 k-point  5 :   0.1429 0.1429 0.0000  plane waves:    6236
 k-point  6 :   0.2857 0.1429 0.0000  plane waves:    6232
 k-point  7 :   0.4286 0.1429 0.0000  plane waves:    6230
 k-point  8 :   0.2857 0.2857 0.0000  plane waves:    6234
 k-point  9 :   0.4286 0.2857 0.0000  plane waves:    6217
 k-point 10 :   0.4286 0.4286 0.0000  plane waves:    6234
 k-point 11 :   0.0000 0.0000 0.1429  plane waves:    6227
 k-point 12 :   0.1429 0.0000 0.1429  plane waves:    6236
 k-point 13 :   0.2857 0.0000 0.1429  plane waves:    6232
 k-point 14 :   0.4286 0.0000 0.1429  plane waves:    6230
 k-point 15 :   0.1429 0.1429 0.1429  plane waves:    6241
 k-point 16 :   0.2857 0.1429 0.1429  plane waves:    6228
 k-point 17 :   0.4286 0.1429 0.1429  plane waves:    6245
 k-point 18 :   0.2857 0.2857 0.1429  plane waves:    6222
 k-point 19 :   0.4286 0.2857 0.1429  plane waves:    6227
 k-point 20 :   0.4286 0.4286 0.1429  plane waves:    6227
 k-point 21 :   0.0000 0.0000 0.2857  plane waves:    6243
 k-point 22 :   0.1429 0.0000 0.2857  plane waves:    6232
 k-point 23 :   0.2857 0.0000 0.2857  plane waves:    6234
 k-point 24 :   0.4286 0.0000 0.2857  plane waves:    6217
 k-point 25 :   0.1429 0.1429 0.2857  plane waves:    6228
 k-point 26 :   0.2857 0.1429 0.2857  plane waves:    6222
 k-point 27 :   0.4286 0.1429 0.2857  plane waves:    6227
 k-point 28 :   0.2857 0.2857 0.2857  plane waves:    6223
 k-point 29 :   0.4286 0.2857 0.2857  plane waves:    6226
 k-point 30 :   0.4286 0.4286 0.2857  plane waves:    6208
 k-point 31 :   0.0000 0.0000 0.4286  plane waves:    6238
 k-point 32 :   0.1429 0.0000 0.4286  plane waves:    6230
 k-point 33 :   0.2857 0.0000 0.4286  plane waves:    6217
 k-point 34 :   0.4286 0.0000 0.4286  plane waves:    6234
 k-point 35 :   0.1429 0.1429 0.4286  plane waves:    6245
 k-point 36 :   0.2857 0.1429 0.4286  plane waves:    6227
 k-point 37 :   0.4286 0.1429 0.4286  plane waves:    6227
 k-point 38 :   0.2857 0.2857 0.4286  plane waves:    6226
 k-point 39 :   0.4286 0.2857 0.4286  plane waves:    6208
 k-point 40 :   0.4286 0.4286 0.4286  plane waves:    6179

 maximum and minimum number of plane-waves per node :      6245     6179

 maximum number of plane-waves:      6245
 maximum index in each direction: 
   IXMAX=   11   IYMAX=   11   IZMAX=   11
   IXMIN=  -11   IYMIN=  -11   IZMIN=  -11


 serial   3D FFT for wavefunctions
 parallel 3D FFT for charge:
    minimum data exchange during FFTs selected (reduces bandwidth)


 total amount of memory used by VASP MPI-rank0   103720. kBytes
=======================================================================

   base      :      30000. kBytes
   nonlr-proj:       6783. kBytes
   fftplans  :       1269. kBytes
   grid      :       6573. kBytes
   one-center:        497. kBytes
   wavefun   :      58598. kBytes

     INWAV:  cpu time    0.0000: real time    0.0000
 Broyden mixing: mesh for mixing (old mesh)
   NGX = 23   NGY = 23   NGZ = 23
  (NGX  = 72   NGY  = 72   NGZ  = 72)
  gives a total of  12167 points

 initial charge density was supplied:
 charge density of overlapping atoms calculated
 number of electron     128.0000000 magnetization      16.8000000
 keeping initial charge density in first step


--------------------------------------------------------------------------------------------------------


 Maximum index for non-local projection operator         3887
 Maximum index for augmentation-charges         2111 (set IRDMAX)


--------------------------------------------------------------------------------------------------------


 First call to EWALD:  gamma=   0.297
 Maximum number of real-space cells 3x 3x 3
 Maximum number of reciprocal cells 3x 3x 3

    FEWALD:  cpu time    0.0021: real time    0.0021


--------------------------------------- Iteration      1(   1)  ---------------------------------------


    POTLOK:  cpu time    0.0982: real time    0.1036
    SETDIJ:  cpu time    0.0353: real time    0.0353
     EDDAV:  cpu time   23.2669: real time   23.3012
       DOS:  cpu time    0.0034: real time    0.0034
    --------------------------------------------
      LOOP:  cpu time   23.4038: real time   23.4436

 eigenvalue-minimisations  : 13440
 total energy-change (2. order) : 0.1065933E+04  (-0.5444465E+04)
 number of electron     128.0000000 magnetization      16.8000000
 augmentation part      128.0000000 magnetization      16.8000000

 Free energy of the ion-electron system (eV)
  ---------------------------------------------------
  alpha Z        PSCENC =       529.15085583
  Ewald energy   TEWEN  =     -9388.55216734
  -Hartree energ DENC   =     -3032.24738887
  -exchange      EXHF   =         0.00000000
  -V(xc)+E(xc)   XCENC  =        78.01477531
  PAW double counting   =     10320.96726947   -10647.99417394
  entropy T*S    EENTRO =        -0.00115124
  eigenvalues    EBANDS =      1977.13256303
  atomic energy  EATOM  =     11229.46195210
  Solvation  Ediel_sol  =         0.00000000
  ---------------------------------------------------
  free energy    TOTEN  =      1065.93253435 eV

  energy without entropy =     1065.93368559  energy(sigma->0) =     1065.93310997


--------------------------------------------------------------------------------------------------------




--------------------------------------- Iteration      1(   2)  ---------------------------------------


     EDDAV:  cpu time   23.2627: real time   23.3383
       DOS:  cpu time    0.0037: real time    0.0054
    --------------------------------------------
      LOOP:  cpu time   23.2663: real time   23.3437

 eigenvalue-minimisations  : 13440
 total energy-change (2. order) :-0.1064653E+04  (-0.1031047E+04)
 number of electron     128.0000000 magnetization      16.8000000
 augmentation part      128.0000000 magnetization      16.8000000

 Free energy of the ion-electron system (eV)
  ---------------------------------------------------
  alpha Z        PSCENC =       529.15085583
  Ewald energy   TEWEN  =     -9388.55216734
  -Hartree energ DENC   =     -3032.24738887
  -exchange      EXHF   =         0.00000000
  -V(xc)+E(xc)   XCENC  =        78.01477531
  PAW double counting   =     10320.96726947   -10647.99417394
  entropy T*S    EENTRO =        -0.00270157
  eigenvalues    EBANDS =       912.48119011
  atomic energy  EATOM  =     11229.46195210
  Solvation  Ediel_sol  =         0.00000000
  ---------------------------------------------------
  free energy    TOTEN  =         1.27961109 eV

  energy without entropy =        1.28231267  energy(sigma->0) =        1.28096188


--------------------------------------------------------------------------------------------------------




--------------------------------------- Iteration      1(   3)  ---------------------------------------


     EDDAV:  cpu time   25.6547: real time   25.7339
       DOS:  cpu time    0.0038: real time    0.0038
    --------------------------------------------
      LOOP:  cpu time   25.6585: real time   25.7377

 eigenvalue-minimisations  : 15156
 total energy-change (2. order) :-0.1107297E+03  (-0.9813957E+02)
 number of electron     128.0000000 magnetization      16.8000000
 augmentation part      128.0000000 magnetization      16.8000000

 Free energy of the ion-electron system (eV)
  ---------------------------------------------------
  alpha Z        PSCENC =       529.15085583
  Ewald energy   TEWEN  =     -9388.55216734
  -Hartree energ DENC   =     -3032.24738887
  -exchange      EXHF   =         0.00000000
  -V(xc)+E(xc)   XCENC  =        78.01477531
  PAW double counting   =     10320.96726947   -10647.99417394
  entropy T*S    EENTRO =        -0.00375964
  eigenvalues    EBANDS =       801.75253241
  atomic energy  EATOM  =     11229.46195210
  Solvation  Ediel_sol  =         0.00000000
  ---------------------------------------------------
  free energy    TOTEN  =      -109.45010467 eV

  energy without entropy =     -109.44634503  energy(sigma->0) =     -109.44822485


--------------------------------------------------------------------------------------------------------




--------------------------------------- Iteration      1(   4)  ---------------------------------------


     EDDAV:  cpu time   31.9191: real time   31.9650
       DOS:  cpu time    0.0038: real time    0.0038
    --------------------------------------------
      LOOP:  cpu time   31.9228: real time   31.9687

 eigenvalue-minimisations  : 19776
 total energy-change (2. order) :-0.6707830E+01  (-0.6271302E+01)
 number of electron     128.0000000 magnetization      16.8000000
 augmentation part      128.0000000 magnetization      16.8000000

 Free energy of the ion-electron system (eV)
  ---------------------------------------------------
  alpha Z        PSCENC =       529.15085583
  Ewald energy   TEWEN  =     -9388.55216734
  -Hartree energ DENC   =     -3032.24738887
  -exchange      EXHF   =         0.00000000
  -V(xc)+E(xc)   XCENC  =        78.01477531
  PAW double counting   =     10320.96726947   -10647.99417394
  entropy T*S    EENTRO =        -0.00340023
  eigenvalues    EBANDS =       795.04434334
  atomic energy  EATOM  =     11229.46195210
  Solvation  Ediel_sol  =         0.00000000
  ---------------------------------------------------
  free energy    TOTEN  =      -116.15793434 eV

  energy without entropy =     -116.15453411  energy(sigma->0) =     -116.15623422


--------------------------------------------------------------------------------------------------------




--------------------------------------- Iteration      1(   5)  ---------------------------------------


     EDDAV:  cpu time   31.5025: real time   31.5390
       DOS:  cpu time    0.0034: real time    0.0034
    CHARGE:  cpu time    0.6645: real time    0.6650
    MIXING:  cpu time    0.0016: real time    0.0016
    --------------------------------------------
      LOOP:  cpu time   32.1719: real time   32.2091

 eigenvalue-minimisations  : 19536
 total energy-change (2. order) :-0.2336279E+00  (-0.2324968E+00)
 number of electron     127.9999798 magnetization      14.5493464
 augmentation part       60.5622965 magnetization       9.2017258

 Broyden mixing:
  rms(total) = 0.34404E+01    rms(broyden)= 0.34403E+01
  rms(prec ) = 0.54073E+01
  weight for this iteration     100.00

 Free energy of the ion-electron system (eV)
  ---------------------------------------------------
  alpha Z        PSCENC =       529.15085583
  Ewald energy   TEWEN  =     -9388.55216734
  -Hartree energ DENC   =     -3032.24738887
  -exchange      EXHF   =         0.00000000
  -V(xc)+E(xc)   XCENC  =        78.01477531
  PAW double counting   =     10320.96726947   -10647.99417394
  entropy T*S    EENTRO =        -0.00322942
  eigenvalues    EBANDS =       794.81054459
  atomic energy  EATOM  =     11229.46195210
  Solvation  Ediel_sol  =         0.00000000
  ---------------------------------------------------
  free energy    TOTEN  =      -116.39156227 eV

  energy without entropy =     -116.38833285  energy(sigma->0) =     -116.38994756


--------------------------------------------------------------------------------------------------------




--------------------------------------- Iteration      1(   6)  ---------------------------------------


    POTLOK:  cpu time    0.1038: real time    0.1045
    SETDIJ:  cpu time    0.0381: real time    0.0382
    EDDIAG:  cpu time    3.3091: real time    3.3128
  RMM-DIIS:  cpu time   10.5445: real time   10.5560
    ORTHCH:  cpu time    0.6296: real time    0.6303
       DOS:  cpu time    0.0038: real time    0.0038
    CHARGE:  cpu time    0.6599: real time    0.6606
    MIXING:  cpu time    0.0016: real time    0.0017
    --------------------------------------------
      LOOP:  cpu time   15.2905: real time   15.3078

 eigenvalue-minimisations  : 13440
 total energy-change (2. order) : 0.2768514E+01  (-0.1880947E+02)
 number of electron     127.9999949 magnetization      14.4003431
 augmentation part       69.3823077 magnetization      11.3871444

 Broyden mixing:
  rms(total) = 0.56184E+01    rms(broyden)= 0.56182E+01
  rms(prec ) = 0.82011E+01
  weight for this iteration     100.00

 eigenvalues of (default mixing * dielectric matrix)
  average eigenvalue GAMMA=   0.1751
  0.1751

 Free energy of the ion-electron system (eV)
  ---------------------------------------------------
  alpha Z        PSCENC =       529.15085583
  Ewald energy   TEWEN  =     -9388.55216734
  -Hartree energ DENC   =     -2799.98556697
  -exchange      EXHF   =         0.00000000
  -V(xc)+E(xc)   XCENC  =        66.15012055
  PAW double counting   =     11112.67336407   -11406.31162845
  entropy T*S    EENTRO =        -0.00579630
  eigenvalues    EBANDS =       543.79581795
  atomic energy  EATOM  =     11229.46195210
  Solvation  Ediel_sol  =         0.00000000
  ---------------------------------------------------
  free energy    TOTEN  =      -113.62304858 eV

  energy without entropy =     -113.61725227  energy(sigma->0) =     -113.62015043


--------------------------------------------------------------------------------------------------------




--------------------------------------- Iteration      1(   7)  ---------------------------------------


    POTLOK:  cpu time    0.0967: real time    0.0968
    SETDIJ:  cpu time    0.0356: real time    0.0357
    EDDIAG:  cpu time    3.2740: real time    3.2776
  RMM-DIIS:  cpu time   10.4394: real time   10.4512
    ORTHCH:  cpu time    0.6301: real time    0.6308
       DOS:  cpu time    0.0035: real time    0.0036
    CHARGE:  cpu time    0.6560: real time    0.6566
    MIXING:  cpu time    0.0016: real time    0.0017
    --------------------------------------------
      LOOP:  cpu time   15.1370: real time   15.1538

 eigenvalue-minimisations  : 13443
 total energy-change (2. order) : 0.2176306E+01  (-0.4162834E+01)
 number of electron     127.9999756 magnetization      14.0131483
 augmentation part       70.7616026 magnetization       9.4706668

 Broyden mixing:
  rms(total) = 0.35696E+01    rms(broyden)= 0.35692E+01
  rms(prec ) = 0.60142E+01
  weight for this iteration     100.00

 eigenvalues of (default mixing * dielectric matrix)
  average eigenvalue GAMMA=   0.4024
  0.4908  0.3139

 Free energy of the ion-electron system (eV)
  ---------------------------------------------------
  alpha Z        PSCENC =       529.15085583
  Ewald energy   TEWEN  =     -9388.55216734
  -Hartree energ DENC   =     -2771.51626177
  -exchange      EXHF   =         0.00000000
  -V(xc)+E(xc)   XCENC  =        65.00633324
  PAW double counting   =     11319.47046975   -11613.06104585
  entropy T*S    EENTRO =        -0.00293890
  eigenvalues    EBANDS =       518.59606069
  atomic energy  EATOM  =     11229.46195210
  Solvation  Ediel_sol  =         0.00000000
  ---------------------------------------------------
  free energy    TOTEN  =      -111.44674226 eV

  energy without entropy =     -111.44380336  energy(sigma->0) =     -111.44527281


--------------------------------------------------------------------------------------------------------




--------------------------------------- Iteration      1(   8)  ---------------------------------------


    POTLOK:  cpu time    0.0965: real time    0.0967
    SETDIJ:  cpu time    0.0357: real time    0.0358
    EDDIAG:  cpu time    3.2829: real time    3.2871
  RMM-DIIS:  cpu time   10.4506: real time   10.4650
    ORTHCH:  cpu time    0.6297: real time    0.6304
       DOS:  cpu time    0.0038: real time    0.0038
    CHARGE:  cpu time    0.6705: real time    0.6712
    MIXING:  cpu time    0.0017: real time    0.0017
    --------------------------------------------
      LOOP:  cpu time   15.1713: real time   15.1916

 eigenvalue-minimisations  : 13440
 total energy-change (2. order) : 0.8425841E+01  (-0.2143186E+01)
 number of electron     127.9999854 magnetization      15.2802518
 augmentation part       67.8059187 magnetization      11.0799136

 Broyden mixing:
  rms(total) = 0.14844E+01    rms(broyden)= 0.14842E+01
  rms(prec ) = 0.22325E+01
  weight for this iteration     100.00

 eigenvalues of (default mixing * dielectric matrix)
  average eigenvalue GAMMA=   0.4703
  0.6126  0.6126  0.1857

 Free energy of the ion-electron system (eV)
  ---------------------------------------------------
  alpha Z        PSCENC =       529.15085583
  Ewald energy   TEWEN  =     -9388.55216734
  -Hartree energ DENC   =     -2840.57935493
  -exchange      EXHF   =         0.00000000
  -V(xc)+E(xc)   XCENC  =        69.81430199
  PAW double counting   =     11785.84413085   -12110.67179907
  entropy T*S    EENTRO =        -0.00379467
  eigenvalues    EBANDS =       622.51497432
  atomic energy  EATOM  =     11229.46195210
  Solvation  Ediel_sol  =         0.00000000
  ---------------------------------------------------
  free energy    TOTEN  =      -103.02090094 eV

  energy without entropy =     -103.01710627  energy(sigma->0) =     -103.01900360


--------------------------------------------------------------------------------------------------------




--------------------------------------- Iteration      1(   9)  ---------------------------------------


    POTLOK:  cpu time    0.0970: real time    0.0972
    SETDIJ:  cpu time    0.0356: real time    0.0356
    EDDIAG:  cpu time    3.3031: real time    3.3076
  RMM-DIIS:  cpu time   10.6829: real time   10.6975
    ORTHCH:  cpu time    0.6337: real time    0.6346
       DOS:  cpu time    0.0037: real time    0.0037
    CHARGE:  cpu time    0.6705: real time    0.6711
    MIXING:  cpu time    0.0018: real time    0.0018
    --------------------------------------------
      LOOP:  cpu time   15.4283: real time   15.4490

 eigenvalue-minimisations  : 13692
 total energy-change (2. order) :-0.1830465E-01  (-0.2578423E+00)
 number of electron     127.9999850 magnetization      16.5681765
 augmentation part       67.3689838 magnetization      11.9470290

 Broyden mixing:
  rms(total) = 0.10458E+01    rms(broyden)= 0.10457E+01
  rms(prec ) = 0.15053E+01
  weight for this iteration     100.00

 eigenvalues of (default mixing * dielectric matrix)
  average eigenvalue GAMMA=   0.5398
  0.7664  0.7664  0.1942  0.4324

 Free energy of the ion-electron system (eV)
  ---------------------------------------------------
  alpha Z        PSCENC =       529.15085583
  Ewald energy   TEWEN  =     -9388.55216734
  -Hartree energ DENC   =     -2843.06051242
  -exchange      EXHF   =         0.00000000
  -V(xc)+E(xc)   XCENC  =        72.74863128
  PAW double counting   =     12082.46915824   -12415.19906539
  entropy T*S    EENTRO =        -0.00434341
  eigenvalues    EBANDS =       629.94628553
  atomic energy  EATOM  =     11229.46195210
  Solvation  Ediel_sol  =         0.00000000
  ---------------------------------------------------
  free energy    TOTEN  =      -103.03920559 eV

  energy without entropy =     -103.03486218  energy(sigma->0) =     -103.03703389


--------------------------------------------------------------------------------------------------------




--------------------------------------- Iteration      1(  10)  ---------------------------------------


    POTLOK:  cpu time    0.1036: real time    0.1043
    SETDIJ:  cpu time    0.0384: real time    0.0384
    EDDIAG:  cpu time    3.3571: real time    3.3614
  RMM-DIIS:  cpu time   10.5779: real time   10.5903
    ORTHCH:  cpu time    0.6302: real time    0.6309
       DOS:  cpu time    0.0038: real time    0.0038
    CHARGE:  cpu time    0.6812: real time    0.6819
    MIXING:  cpu time    0.0019: real time    0.0019
    --------------------------------------------
      LOOP:  cpu time   15.3941: real time   15.4130

 eigenvalue-minimisations  : 13461
 total energy-change (2. order) : 0.9362108E-01  (-0.1299719E+00)
 number of electron     127.9999834 magnetization      18.1710776
 augmentation part       67.9236317 magnetization      13.6962010

 Broyden mixing:
  rms(total) = 0.60404E+00    rms(broyden)= 0.60400E+00
  rms(prec ) = 0.87708E+00
  weight for this iteration     100.00

 eigenvalues of (default mixing * dielectric matrix)
  average eigenvalue GAMMA=   0.6940
  1.5867  0.8650  0.5597  0.1945  0.2639

 Free energy of the ion-electron system (eV)
  ---------------------------------------------------
  alpha Z        PSCENC =       529.15085583
  Ewald energy   TEWEN  =     -9388.55216734
  -Hartree energ DENC   =     -2832.07283912
  -exchange      EXHF   =         0.00000000
  -V(xc)+E(xc)   XCENC  =        74.25653964
  PAW double counting   =     12315.25911962   -12650.39960576
  entropy T*S    EENTRO =        -0.00331019
  eigenvalues    EBANDS =       619.95387072
  atomic energy  EATOM  =     11229.46195210
  Solvation  Ediel_sol  =         0.00000000
  ---------------------------------------------------
  free energy    TOTEN  =      -102.94558451 eV

  energy without entropy =     -102.94227432  energy(sigma->0) =     -102.94392941


--------------------------------------------------------------------------------------------------------




--------------------------------------- Iteration      1(  11)  ---------------------------------------


    POTLOK:  cpu time    0.0968: real time    0.0969
    SETDIJ:  cpu time    0.0357: real time    0.0358
    EDDIAG:  cpu time    3.3187: real time    3.3227
  RMM-DIIS:  cpu time   10.8118: real time   10.8242
    ORTHCH:  cpu time    0.6282: real time    0.6289
       DOS:  cpu time    0.0036: real time    0.0037
    CHARGE:  cpu time    0.6903: real time    0.6909
    MIXING:  cpu time    0.0020: real time    0.0020
    --------------------------------------------
      LOOP:  cpu time   15.5872: real time   15.6050

 eigenvalue-minimisations  : 13861
 total energy-change (2. order) : 0.3804826E-01  (-0.4900303E-01)
 number of electron     127.9999842 magnetization      18.4025097
 augmentation part       67.7347469 magnetization      13.5850829

 Broyden mixing:
  rms(total) = 0.36502E+00    rms(broyden)= 0.36499E+00
  rms(prec ) = 0.49891E+00
  weight for this iteration     100.00

 eigenvalues of (default mixing * dielectric matrix)
  average eigenvalue GAMMA=   0.6870
  1.8272  0.6220  0.6112  0.6112  0.1954  0.2551

 Free energy of the ion-electron system (eV)
  ---------------------------------------------------
  alpha Z        PSCENC =       529.15085583
  Ewald energy   TEWEN  =     -9388.55216734
  -Hartree energ DENC   =     -2830.49422833
  -exchange      EXHF   =         0.00000000
  -V(xc)+E(xc)   XCENC  =        76.93854464
  PAW double counting   =     12715.86094036   -13058.32252252
  entropy T*S    EENTRO =        -0.00246388
  eigenvalues    EBANDS =       623.05155290
  atomic energy  EATOM  =     11229.46195210
  Solvation  Ediel_sol  =         0.00000000
  ---------------------------------------------------
  free energy    TOTEN  =      -102.90753625 eV

  energy without entropy =     -102.90507237  energy(sigma->0) =     -102.90630431


--------------------------------------------------------------------------------------------------------




--------------------------------------- Iteration      1(  12)  ---------------------------------------


    POTLOK:  cpu time    0.0972: real time    0.0973
    SETDIJ:  cpu time    0.0359: real time    0.0360
    EDDIAG:  cpu time    3.3313: real time    3.3351
  RMM-DIIS:  cpu time   11.0117: real time   11.0241
    ORTHCH:  cpu time    0.6276: real time    0.6282
       DOS:  cpu time    0.0037: real time    0.0038
    CHARGE:  cpu time    0.6884: real time    0.6891
    MIXING:  cpu time    0.0021: real time    0.0021
    --------------------------------------------
      LOOP:  cpu time   15.7981: real time   15.8157

 eigenvalue-minimisations  : 13941
 total energy-change (2. order) : 0.1765738E-01  (-0.1449866E-01)
 number of electron     127.9999843 magnetization      18.3791697
 augmentation part       67.6731088 magnetization      13.6538190

 Broyden mixing:
  rms(total) = 0.23892E+00    rms(broyden)= 0.23892E+00
  rms(prec ) = 0.28854E+00
  weight for this iteration     100.00

 eigenvalues of (default mixing * dielectric matrix)
  average eigenvalue GAMMA=   0.6881
  1.9767  0.7543  0.7543  0.5352  0.1953  0.3521  0.2486

 Free energy of the ion-electron system (eV)
  ---------------------------------------------------
  alpha Z        PSCENC =       529.15085583
  Ewald energy   TEWEN  =     -9388.55216734
  -Hartree energ DENC   =     -2829.86178906
  -exchange      EXHF   =         0.00000000
  -V(xc)+E(xc)   XCENC  =        76.84818298
  PAW double counting   =     12809.01371343   -13152.84079036
  entropy T*S    EENTRO =        -0.00263751
  eigenvalues    EBANDS =       623.89280105
  atomic energy  EATOM  =     11229.46195210
  Solvation  Ediel_sol  =         0.00000000
  ---------------------------------------------------
  free energy    TOTEN  =      -102.88987887 eV

  energy without entropy =     -102.88724137  energy(sigma->0) =     -102.88856012


--------------------------------------------------------------------------------------------------------




--------------------------------------- Iteration      1(  13)  ---------------------------------------


    POTLOK:  cpu time    0.0993: real time    0.0994
    SETDIJ:  cpu time    0.0361: real time    0.0362
    EDDIAG:  cpu time    3.3446: real time    3.3485
  RMM-DIIS:  cpu time   10.7855: real time   10.7977
    ORTHCH:  cpu time    0.6305: real time    0.6311
       DOS:  cpu time    0.0037: real time    0.0038
    CHARGE:  cpu time    0.6865: real time    0.6872
    MIXING:  cpu time    0.0023: real time    0.0023
    --------------------------------------------
      LOOP:  cpu time   15.5885: real time   15.6062

 eigenvalue-minimisations  : 13671
 total energy-change (2. order) : 0.3020584E-02  (-0.3109616E-02)
 number of electron     127.9999843 magnetization      18.3164992
 augmentation part       67.7047280 magnetization      13.5093440

 Broyden mixing:
  rms(total) = 0.13675E+00    rms(broyden)= 0.13675E+00
  rms(prec ) = 0.15338E+00
  weight for this iteration     100.00

 eigenvalues of (default mixing * dielectric matrix)
  average eigenvalue GAMMA=   0.7610
  2.2128  0.9586  0.9586  0.5973  0.5973  0.1953  0.3178  0.2501

 Free energy of the ion-electron system (eV)
  ---------------------------------------------------
  alpha Z        PSCENC =       529.15085583
  Ewald energy   TEWEN  =     -9388.55216734
  -Hartree energ DENC   =     -2827.98094728
  -exchange      EXHF   =         0.00000000
  -V(xc)+E(xc)   XCENC  =        76.43086920
  PAW double counting   =     12868.68884155   -13212.95214673
  entropy T*S    EENTRO =        -0.00263912
  eigenvalues    EBANDS =       622.86852350
  atomic energy  EATOM  =     11229.46195210
  Solvation  Ediel_sol  =         0.00000000
  ---------------------------------------------------
  free energy    TOTEN  =      -102.88685829 eV

  energy without entropy =     -102.88421917  energy(sigma->0) =     -102.88553873


--------------------------------------------------------------------------------------------------------




--------------------------------------- Iteration      1(  14)  ---------------------------------------


    POTLOK:  cpu time    0.1035: real time    0.1044
    SETDIJ:  cpu time    0.0382: real time    0.0382
    EDDIAG:  cpu time    3.3975: real time    3.4012
  RMM-DIIS:  cpu time   10.6682: real time   10.6797
    ORTHCH:  cpu time    0.6351: real time    0.6357
       DOS:  cpu time    0.0037: real time    0.0037
    CHARGE:  cpu time    0.6892: real time    0.6898
    MIXING:  cpu time    0.0024: real time    0.0024
    --------------------------------------------
      LOOP:  cpu time   15.5378: real time   15.5552

 eigenvalue-minimisations  : 13520
 total energy-change (2. order) :-0.1501665E-04  (-0.2776163E-02)
 number of electron     127.9999841 magnetization      18.2793197
 augmentation part       67.8136105 magnetization      13.4805707

 Broyden mixing:
  rms(total) = 0.79805E-01    rms(broyden)= 0.79799E-01
  rms(prec ) = 0.11495E+00
  weight for this iteration     100.00

 eigenvalues of (default mixing * dielectric matrix)
  average eigenvalue GAMMA=   0.7829
  2.3808  1.1964  0.8483  0.8483  0.5521  0.4461  0.1953  0.2494  0.3296

 Free energy of the ion-electron system (eV)
  ---------------------------------------------------
  alpha Z        PSCENC =       529.15085583
  Ewald energy   TEWEN  =     -9388.55216734
  -Hartree energ DENC   =     -2825.11027065
  -exchange      EXHF   =         0.00000000
  -V(xc)+E(xc)   XCENC  =        76.11600284
  PAW double counting   =     12921.61776434   -13265.96158071
  entropy T*S    EENTRO =        -0.00267949
  eigenvalues    EBANDS =       620.39324978
  atomic energy  EATOM  =     11229.46195210
  Solvation  Ediel_sol  =         0.00000000
  ---------------------------------------------------
  free energy    TOTEN  =      -102.88687331 eV

  energy without entropy =     -102.88419382  energy(sigma->0) =     -102.88553356


--------------------------------------------------------------------------------------------------------




--------------------------------------- Iteration      1(  15)  ---------------------------------------


    POTLOK:  cpu time    0.0968: real time    0.0969
    SETDIJ:  cpu time    0.0361: real time    0.0361
    EDDIAG:  cpu time    3.3691: real time    3.3734
  RMM-DIIS:  cpu time   10.8017: real time   10.8139
    ORTHCH:  cpu time    0.6324: real time    0.6330
       DOS:  cpu time    0.0038: real time    0.0039
    CHARGE:  cpu time    0.6877: real time    0.6885
    MIXING:  cpu time    0.0027: real time    0.0027
    --------------------------------------------
      LOOP:  cpu time   15.6304: real time   15.6484

 eigenvalue-minimisations  : 13632
 total energy-change (2. order) : 0.1793031E-02  (-0.1079017E-02)
 number of electron     127.9999842 magnetization      18.2630883
 augmentation part       67.7888837 magnetization      13.4435232

 Broyden mixing:
  rms(total) = 0.37619E-01    rms(broyden)= 0.37617E-01
  rms(prec ) = 0.48800E-01
  weight for this iteration     100.00

 eigenvalues of (default mixing * dielectric matrix)
  average eigenvalue GAMMA=   0.8226
  2.4496  1.6529  0.8923  0.8923  0.6200  0.6200  0.1953  0.2488  0.3274  0.3274

 Free energy of the ion-electron system (eV)
  ---------------------------------------------------
  alpha Z        PSCENC =       529.15085583
  Ewald energy   TEWEN  =     -9388.55216734
  -Hartree energ DENC   =     -2825.23888212
  -exchange      EXHF   =         0.00000000
  -V(xc)+E(xc)   XCENC  =        76.12591780
  PAW double counting   =     12940.17016408   -13284.77426867
  entropy T*S    EENTRO =        -0.00279526
  eigenvalues    EBANDS =       620.77414330
  atomic energy  EATOM  =     11229.46195210
  Solvation  Ediel_sol  =         0.00000000
  ---------------------------------------------------
  free energy    TOTEN  =      -102.88508027 eV

  energy without entropy =     -102.88228501  energy(sigma->0) =     -102.88368264


--------------------------------------------------------------------------------------------------------




--------------------------------------- Iteration      1(  16)  ---------------------------------------


    POTLOK:  cpu time    0.0972: real time    0.0973
    SETDIJ:  cpu time    0.0359: real time    0.0359
    EDDIAG:  cpu time    3.3755: real time    3.3794
  RMM-DIIS:  cpu time   11.6889: real time   11.7018
    ORTHCH:  cpu time    0.6280: real time    0.6287
       DOS:  cpu time    0.0035: real time    0.0035
    CHARGE:  cpu time    0.6900: real time    0.6906
    MIXING:  cpu time    0.0027: real time    0.0027
    --------------------------------------------
      LOOP:  cpu time   16.5217: real time   16.5399

 eigenvalue-minimisations  : 14551
 total energy-change (2. order) : 0.1571885E-03  (-0.2085320E-03)
 number of electron     127.9999842 magnetization      18.2523328
 augmentation part       67.7901329 magnetization      13.4392013

 Broyden mixing:
  rms(total) = 0.16536E-01    rms(broyden)= 0.16535E-01
  rms(prec ) = 0.23242E-01
  weight for this iteration     100.00

 eigenvalues of (default mixing * dielectric matrix)
  average eigenvalue GAMMA=   0.8852
  2.3809  2.3809  0.9746  0.9746  0.6990  0.6219  0.6219  0.1953  0.2486  0.3200
  0.3200

 Free energy of the ion-electron system (eV)
  ---------------------------------------------------
  alpha Z        PSCENC =       529.15085583
  Ewald energy   TEWEN  =     -9388.55216734
  -Hartree energ DENC   =     -2825.42296169
  -exchange      EXHF   =         0.00000000
  -V(xc)+E(xc)   XCENC  =        76.13082057
  PAW double counting   =     12945.73561006   -13290.33763801
  entropy T*S    EENTRO =        -0.00279423
  eigenvalues    EBANDS =       620.95139962
  atomic energy  EATOM  =     11229.46195210
  Solvation  Ediel_sol  =         0.00000000
  ---------------------------------------------------
  free energy    TOTEN  =      -102.88492309 eV

  energy without entropy =     -102.88212885  energy(sigma->0) =     -102.88352597


--------------------------------------------------------------------------------------------------------




--------------------------------------- Iteration      1(  17)  ---------------------------------------


    POTLOK:  cpu time    0.0970: real time    0.0971
    SETDIJ:  cpu time    0.0357: real time    0.0357
    EDDIAG:  cpu time    3.3821: real time    3.3860
  RMM-DIIS:  cpu time   11.0125: real time   11.0251
    ORTHCH:  cpu time    0.6289: real time    0.6295
       DOS:  cpu time    0.0038: real time    0.0038
    CHARGE:  cpu time    0.6988: real time    0.6995
    MIXING:  cpu time    0.0029: real time    0.0029
    --------------------------------------------
      LOOP:  cpu time   15.8616: real time   15.8797

 eigenvalue-minimisations  : 13851
 total energy-change (2. order) : 0.1209443E-03  (-0.4488524E-04)
 number of electron     127.9999842 magnetization      18.2598206
 augmentation part       67.7826797 magnetization      13.4409699

 Broyden mixing:
  rms(total) = 0.65465E-02    rms(broyden)= 0.65463E-02
  rms(prec ) = 0.84437E-02
  weight for this iteration     100.00

 eigenvalues of (default mixing * dielectric matrix)
  average eigenvalue GAMMA=   0.9000
  2.4484  2.4484  1.0179  1.0179  0.7915  0.6824  0.6824  0.6264  0.1953  0.2487
  0.3266  0.3140

 Free energy of the ion-electron system (eV)
  ---------------------------------------------------
  alpha Z        PSCENC =       529.15085583
  Ewald energy   TEWEN  =     -9388.55216734
  -Hartree energ DENC   =     -2825.79885654
  -exchange      EXHF   =         0.00000000
  -V(xc)+E(xc)   XCENC  =        76.16049097
  PAW double counting   =     12941.79238891   -13286.30842091
  entropy T*S    EENTRO =        -0.00279118
  eigenvalues    EBANDS =       621.21174602
  atomic energy  EATOM  =     11229.46195210
  Solvation  Ediel_sol  =         0.00000000
  ---------------------------------------------------
  free energy    TOTEN  =      -102.88480214 eV

  energy without entropy =     -102.88201097  energy(sigma->0) =     -102.88340655


--------------------------------------------------------------------------------------------------------




--------------------------------------- Iteration      1(  18)  ---------------------------------------


    POTLOK:  cpu time    0.1036: real time    0.1044
    SETDIJ:  cpu time    0.0382: real time    0.0383
    EDDIAG:  cpu time    3.4418: real time    3.4458
  RMM-DIIS:  cpu time   10.7485: real time   10.7608
    ORTHCH:  cpu time    0.6313: real time    0.6320
       DOS:  cpu time    0.0034: real time    0.0034
    CHARGE:  cpu time    0.7000: real time    0.7006
    MIXING:  cpu time    0.0032: real time    0.0032
    --------------------------------------------
      LOOP:  cpu time   15.6701: real time   15.6883

 eigenvalue-minimisations  : 13210
 total energy-change (2. order) : 0.1332536E-04  (-0.1179218E-04)
 number of electron     127.9999842 magnetization      18.2660833
 augmentation part       67.7811756 magnetization      13.4470924

 Broyden mixing:
  rms(total) = 0.21744E-02    rms(broyden)= 0.21743E-02
  rms(prec ) = 0.24483E-02
  weight for this iteration     100.00

 eigenvalues of (default mixing * dielectric matrix)
  average eigenvalue GAMMA=   0.9615
  2.6012  2.6012  1.5400  0.9782  0.9782  0.7117  0.7117  0.6880  0.6049  0.1953
  0.2487  0.3271  0.3135

 Free energy of the ion-electron system (eV)
  ---------------------------------------------------
  alpha Z        PSCENC =       529.15085583
  Ewald energy   TEWEN  =     -9388.55216734
[...]
     79      11.1627      0.00000
     80      11.5593      0.00000
     81      11.6701      0.00000
     82      11.9120      0.00000
     83      12.1325      0.00000
     84      12.5395      0.00000


--------------------------------------------------------------------------------------------------------


 soft charge-density along one line, spin component           1
         0         1         2         3         4         5         6         7         8         9
 total charge-density along one line

 soft charge-density along one line, spin component           2
         0         1         2         3         4         5         6         7         8         9
 total charge-density along one line

 pseudopotential strength for first ion, spin component:           1
 -1.842  -0.006  -0.040  -0.006   0.000  -2.469  -0.006  -0.038
 -0.006  -1.840   0.001  -0.006   0.002  -0.006  -2.467   0.000
 -0.040   0.001  -1.919   0.001   0.000  -0.038   0.000  -2.542
 -0.006  -0.006   0.001  -1.840  -0.002  -0.006  -0.006   0.000
  0.000   0.002   0.000  -0.002  -1.918   0.000   0.002   0.000
 -2.469  -0.006  -0.038  -0.006   0.000  -3.026  -0.006  -0.036
 -0.006  -2.467   0.000  -0.006   0.002  -0.006  -3.024   0.000
 -0.038   0.000  -2.542   0.000   0.000  -0.036   0.000  -3.095
 -0.006  -0.006   0.000  -2.467  -0.002  -0.006  -0.006   0.000
  0.000   0.002   0.000  -0.002  -2.541   0.000   0.003   0.000
 -0.009  -0.001  -0.000  -0.001   0.000  -0.009  -0.001  -0.000
 -0.016  -0.003  -0.001  -0.003   0.000  -0.015  -0.002  -0.001
 -0.002   0.002   0.000   0.001   0.000  -0.002   0.002   0.000
  0.001  -0.002  -0.001  -0.002   0.000   0.001  -0.002  -0.001
 -0.002   0.001   0.000   0.002  -0.000  -0.002   0.001   0.000
 -0.003   0.002   0.000   0.002   0.001  -0.002   0.002   0.000
  0.002  -0.003  -0.000  -0.003   0.000   0.001  -0.003  -0.000
 -0.003   0.002   0.000   0.002  -0.001  -0.002   0.001   0.000
 pseudopotential strength for first ion, spin component:           2
 -1.518  -0.002   0.031  -0.002  -0.000  -2.160  -0.003   0.030
 -0.002  -1.509  -0.001   0.003  -0.001  -0.003  -2.152  -0.001
  0.031  -0.001  -1.423  -0.001   0.000   0.030  -0.001  -2.068
 -0.002   0.003  -0.001  -1.509   0.001  -0.003   0.003  -0.001
 -0.000  -0.001   0.000   0.001  -1.430  -0.000  -0.000   0.000
 -2.160  -0.003   0.030  -0.003  -0.000  -2.733  -0.003   0.029
 -0.003  -2.152  -0.001   0.003  -0.000  -0.003  -2.724  -0.001
  0.030  -0.001  -2.068  -0.001   0.000   0.029  -0.001  -2.644
 -0.003   0.003  -0.001  -2.152   0.000  -0.003   0.003  -0.001
 -0.000  -0.000   0.000   0.000  -2.075  -0.000  -0.000   0.000
  0.004  -0.002  -0.001  -0.002   0.000   0.004  -0.002  -0.001
  0.007  -0.004  -0.001  -0.004   0.000   0.007  -0.003  -0.001
  0.002  -0.002  -0.000  -0.001  -0.001   0.002  -0.002  -0.000
 -0.001   0.002  -0.001   0.002   0.000  -0.001   0.002  -0.001
  0.002  -0.001  -0.000  -0.002   0.001   0.002  -0.001  -0.000
  0.003  -0.003  -0.000  -0.002  -0.001   0.003  -0.003  -0.000
 -0.002   0.003  -0.001   0.003   0.000  -0.002   0.003  -0.001
  0.003  -0.002  -0.000  -0.003   0.001   0.003  -0.002  -0.000
 total augmentation occupancy for first ion, spin component:           1
  2.056   0.081   0.064   0.081  -0.000  -0.546  -0.083  -0.065  -0.083   0.000  -0.075   0.040   0.004  -0.003   0.004   0.001
  0.081   2.111  -0.016   0.041   0.038  -0.083  -0.581   0.016  -0.052  -0.032  -0.103   0.039  -0.008  -0.005  -0.004   0.000
  0.064  -0.016   2.674  -0.016   0.000  -0.065   0.016  -0.999   0.016   0.000  -0.010   0.002   0.004  -0.021   0.004  -0.000
  0.081   0.041  -0.016   2.111  -0.038  -0.083  -0.052   0.016  -0.581   0.032  -0.103   0.039  -0.004  -0.005  -0.008  -0.000
 -0.000   0.038  -0.000  -0.038   2.706   0.000  -0.032   0.000   0.032  -1.017  -0.000   0.000  -0.003   0.000   0.003  -0.000
 -0.546  -0.083  -0.065  -0.083  -0.000   0.829   0.084   0.046   0.084   0.000   0.044  -0.027  -0.004   0.002  -0.004  -0.000
 -0.083  -0.581   0.016  -0.052  -0.032   0.084   0.853  -0.009   0.060   0.017   0.064  -0.025   0.010   0.001   0.003  -0.000
 -0.065   0.016  -0.999   0.016  -0.000   0.046  -0.009   1.058  -0.009   0.000   0.006  -0.001  -0.002   0.019  -0.002  -0.000
 -0.083  -0.052   0.016  -0.581   0.032   0.084   0.060  -0.009   0.853  -0.017   0.064  -0.025   0.003   0.001   0.010   0.000
 -0.000  -0.032  -0.000   0.032  -1.017   0.000   0.017   0.000  -0.017   1.065  -0.000   0.000   0.003  -0.000  -0.003  -0.000
 -0.075  -0.103  -0.010  -0.103   0.000   0.044   0.064   0.006   0.064   0.000   2.095  -0.280  -0.001   0.011  -0.001   0.000
  0.040   0.039   0.002   0.039   0.000  -0.027  -0.025  -0.001  -0.025  -0.000  -0.280   0.048  -0.000  -0.002  -0.000   0.000
  0.004  -0.008   0.004  -0.004  -0.003  -0.004   0.010  -0.002   0.003   0.003  -0.001  -0.000   0.254   0.001   0.002  -0.026
 -0.003  -0.005  -0.021  -0.005   0.000   0.002   0.001   0.019   0.001  -0.000   0.011  -0.002   0.001   0.255   0.001  -0.002
  0.004  -0.004   0.004  -0.008   0.003  -0.004   0.003  -0.002   0.010  -0.003  -0.001  -0.000   0.002   0.001   0.254  -0.002
  0.001   0.000  -0.000  -0.000  -0.000  -0.000  -0.000  -0.000   0.000  -0.000   0.000   0.000  -0.026  -0.002  -0.002   0.003
 -0.000   0.001   0.001   0.001   0.000   0.000  -0.000  -0.002  -0.000   0.000  -0.002   0.000  -0.002  -0.026  -0.002   0.001
  0.001  -0.000  -0.000   0.000   0.000  -0.000   0.000  -0.000  -0.000   0.000   0.000   0.000  -0.002  -0.002  -0.026   0.001
 total augmentation occupancy for first ion, spin component:           2
  0.543  -0.002   0.306  -0.002   0.000  -0.329   0.006  -0.161   0.006   0.000   0.084  -0.002   0.037  -0.046   0.037  -0.001
 -0.002   0.585  -0.003  -0.189  -0.021   0.006  -0.353   0.001   0.174   0.013  -0.002   0.002  -0.041   0.042  -0.042   0.002
  0.306  -0.003   0.932  -0.003   0.000  -0.162   0.002  -0.449   0.002   0.000   0.024   0.007   0.009   0.022   0.009   0.000
 -0.002  -0.189  -0.003   0.585   0.021   0.006   0.174   0.001  -0.353  -0.013  -0.002   0.002  -0.042   0.042  -0.041   0.001
  0.000  -0.021   0.000   0.021   0.880  -0.000   0.012   0.000  -0.012  -0.415  -0.000   0.000   0.017  -0.000  -0.017  -0.000
 -0.329   0.006  -0.162   0.006   0.000   0.157  -0.007   0.067  -0.007  -0.000  -0.053   0.010  -0.024   0.033  -0.024   0.002
  0.006  -0.353   0.002   0.174   0.012  -0.007   0.170  -0.001  -0.150  -0.006   0.003  -0.001   0.026  -0.026   0.030  -0.003
 -0.161   0.001  -0.449   0.001   0.000   0.067  -0.001   0.137  -0.001   0.000  -0.015  -0.003  -0.009  -0.020  -0.009   0.000
  0.006   0.174   0.002  -0.353  -0.012  -0.007  -0.150  -0.001   0.170   0.006   0.003  -0.001   0.030  -0.026   0.026  -0.002
  0.000   0.013   0.000  -0.013  -0.415   0.000  -0.006   0.000   0.006   0.115   0.000   0.000  -0.017   0.000   0.017   0.000
  0.084  -0.002   0.024  -0.002  -0.000  -0.053   0.003  -0.015   0.003   0.000  -0.085   0.019   0.005  -0.004   0.005   0.001
 -0.002   0.002   0.007   0.002   0.000   0.010  -0.001  -0.003  -0.001   0.000   0.019  -0.003   0.002  -0.002   0.002  -0.000
  0.037  -0.041   0.009  -0.042   0.017  -0.024   0.026  -0.009   0.030  -0.017   0.005   0.002  -0.003   0.001  -0.012   0.000
 -0.046   0.042   0.022   0.042   0.000   0.033  -0.026  -0.020  -0.026  -0.000  -0.004  -0.002   0.001  -0.004   0.001   0.000
  0.037  -0.042   0.009  -0.041  -0.017  -0.024   0.030  -0.009   0.026   0.017   0.005   0.002  -0.012   0.001  -0.003   0.002
 -0.001   0.002   0.000   0.001  -0.000   0.002  -0.003   0.000  -0.002   0.000   0.001  -0.000   0.000   0.000   0.002  -0.000
  0.001  -0.001  -0.000  -0.001  -0.000  -0.003   0.003   0.001   0.003   0.000  -0.001   0.000  -0.000   0.000  -0.000  -0.000
 -0.001   0.001   0.000   0.002   0.000   0.002  -0.002   0.000  -0.003  -0.000   0.001  -0.000   0.002   0.000   0.000  -0.000


------------------------ aborting loop because EDIFF is reached ----------------------------------------





 total charge     

# of ion       s       p       d       tot
------------------------------------------
    1        0.466   0.424   8.382   9.272
    2        0.464   0.420   8.375   9.259
    3        0.466   0.420   8.368   9.254
    4        0.464   0.424   8.370   9.258
    5        0.464   0.424   8.370   9.258
    6        0.466   0.420   8.368   9.254
    7        0.464   0.420   8.375   9.259
    8        0.466   0.424   8.382   9.272
    9        0.320   0.309   4.903   5.532
   10        0.324   0.315   4.914   5.553
   11        0.330   0.317   4.936   5.583
   12        0.335   0.310   4.959   5.604
   13        0.335   0.324   4.917   5.576
   14        0.325   0.313   4.958   5.596
   15        1.261   1.798   0.348   3.407
   16        1.273   1.838   0.357   3.468
--------------------------------------------------
tot          8.224   8.900  97.282 114.406



 magnetization (x)

# of ion       s       p       d       tot
------------------------------------------
    1       -0.011  -0.004   0.458   0.442
    2       -0.011  -0.009   0.440   0.420
    3       -0.010  -0.009   0.445   0.426
    4       -0.014  -0.003   0.460   0.443
    5       -0.014  -0.003   0.460   0.443
    6       -0.010  -0.009   0.445   0.426
    7       -0.011  -0.009   0.440   0.420
    8       -0.011  -0.004   0.458   0.442
    9        0.032   0.029   3.554   3.615
   10       -0.039  -0.045  -3.532  -3.617
   11        0.030   0.040   3.545   3.615
   12        0.033  -0.001   3.577   3.609
   13        0.023   0.023   3.529   3.575
   14        0.021   0.026   3.568   3.615
   15       -0.005  -0.091  -0.011  -0.107
   16        0.007  -0.045  -0.009  -0.048
--------------------------------------------------
tot          0.007  -0.114  17.827  17.719

    CHARGE:  cpu time    0.6829: real time    0.6835
    FORLOC:  cpu time    0.0072: real time    0.0072
    FORNL :  cpu time    5.0298: real time    5.0348
    STRESS:  cpu time   15.0777: real time   15.0929
    FORCOR:  cpu time    0.0992: real time    0.0993
    FORHAR:  cpu time    0.0160: real time    0.0160
    MIXING:  cpu time    0.0034: real time    0.0034
    OFIELD:  cpu time    0.0000: real time    0.0000

  FORCE on cell =-STRESS in cart. coord.  units (eV):
  Direction    XX          YY          ZZ          XY          YZ          ZX
  --------------------------------------------------------------------------------------
  Alpha Z   529.15086   529.15086   529.15086
  Ewald   -3128.42867 -3128.42867 -3131.72298    -0.00000    -0.00000     0.00000
  Hartree   943.03102   943.03102   939.85453    -0.00000    -0.00000    -0.00000
  E(xc)    -671.42823  -671.42823  -671.72736     0.00000     0.00000     0.00000
  Local    -167.74810  -167.74810  -163.06121    -0.00000    -0.00000     0.00000
  n-local  -147.59587  -143.68088  -147.00394     0.00932    -0.43472    -0.05808
  augment  1579.82055  1579.82055  1581.58518    -0.00000     0.00000     0.00000
  Kinetic  1052.05863  1068.55599  1064.01553     0.96816     0.55728     1.18803
  Fock        0.00000     0.00000     0.00000     0.00000     0.00000     0.00000
  -------------------------------------------------------------------------------------
  Total      -0.93365    -0.93365     1.09062     0.00000    -0.00000    -0.00000
  in kB      -7.03440    -7.03440     8.21703     0.00000    -0.00000    -0.00000
  external pressure =       -1.95 kB  Pullay stress =        0.00 kB


 VOLUME and BASIS-vectors are now :
 -----------------------------------------------------------------------------
  energy-cutoff  :      550.00
  volume of cell :      212.65
      direct lattice vectors                 reciprocal lattice vectors
     5.968831030  0.000000000  0.000000000     0.167536993  0.000000000  0.000000000
     0.000000000  5.968831030  0.000000000     0.000000000  0.167536993  0.000000000
     0.000000000  0.000000000  5.968831030     0.000000000  0.000000000  0.167536993

  length of vectors
     5.968831030  5.968831030  5.968831030     0.167536993  0.167536993  0.167536993


 FORCES acting on ions
    electron-ion (+dipol)            ewald-force                    non-local-force                 convergence-correction
 -----------------------------------------------------------------------------------------------
   -.383E+01 -.383E+01 0.195E+02   0.371E+01 0.371E+01 -.195E+02   0.114E+00 0.114E+00 0.161E-01   0.777E-02 0.777E-02 -.562E-02
   0.383E+01 -.383E+01 0.195E+02   -.371E+01 0.371E+01 -.195E+02   -.114E+00 0.114E+00 0.161E-01   -.777E-02 0.777E-02 -.562E-02
   -.383E+01 0.383E+01 0.195E+02   0.371E+01 -.371E+01 -.195E+02   0.114E+00 -.114E+00 0.161E-01   0.777E-02 -.777E-02 -.562E-02
   0.383E+01 0.383E+01 0.195E+02   -.371E+01 -.371E+01 -.195E+02   -.114E+00 -.114E+00 0.161E-01   -.777E-02 -.777E-02 -.562E-02
   -.383E+01 -.383E+01 -.195E+02   0.371E+01 0.371E+01 0.195E+02   0.114E+00 0.114E+00 -.161E-01   0.777E-02 0.777E-02 0.562E-02
   0.383E+01 -.383E+01 -.195E+02   -.371E+01 0.371E+01 0.195E+02   -.114E+00 0.114E+00 -.161E-01   -.777E-02 0.777E-02 0.562E-02
   -.383E+01 0.383E+01 -.195E+02   0.371E+01 -.371E+01 0.195E+02   0.114E+00 -.114E+00 -.161E-01   0.777E-02 -.777E-02 0.562E-02
   0.383E+01 0.383E+01 -.195E+02   -.371E+01 -.371E+01 0.195E+02   -.114E+00 -.114E+00 -.161E-01   -.777E-02 -.777E-02 0.562E-02
   0.219E-12 -.358E-14 -.908E-12   -.398E-13 -.735E-13 0.240E-13   0.000E+00 0.000E+00 0.000E+00   -.341E-14 0.788E-14 0.499E-13
   0.222E-12 0.168E-12 0.256E-12   -.130E-13 -.695E-13 -.167E-13   0.000E+00 0.000E+00 0.000E+00   0.148E-13 -.279E-13 0.262E-13
   -.435E-13 0.195E-12 -.548E-13   -.418E-13 0.138E-14 0.980E-14   0.000E+00 0.000E+00 0.000E+00   0.241E-14 -.239E-13 0.542E-14
   -.449E-13 -.416E-13 0.179E-12   0.497E-13 0.129E-13 -.403E-13   0.000E+00 0.000E+00 0.000E+00   0.358E-13 0.302E-13 -.307E-13
   0.215E-12 -.211E-13 0.961E-12   0.872E-13 0.696E-13 -.380E-13   0.000E+00 0.000E+00 0.000E+00   -.117E-13 0.218E-13 -.402E-13
   -.425E-13 0.191E-12 0.184E-12   0.519E-13 0.598E-13 0.469E-14   0.000E+00 0.000E+00 0.000E+00   0.277E-13 -.214E-13 -.199E-13
   -.306E-13 -.219E-13 -.152E-13   -.202E-14 -.151E-14 -.223E-13   0.000E+00 0.000E+00 0.000E+00   0.414E-14 0.720E-14 0.106E-13
   -.208E-13 -.271E-12 -.596E-12   0.317E-13 0.211E-13 -.104E-13   0.000E+00 0.000E+00 0.000E+00   -.908E-14 -.100E-13 -.726E-14
 -----------------------------------------------------------------------------------------------
   0.305E-11 0.123E-10 -.361E-10   0.312E-14 -.113E-14 -.431E-13   0.278E-16 -.139E-16 0.000E+00   0.423E-12 0.250E-12 -.238E-12


 POSITION                                       TOTAL-FORCE (eV/Angst)
 -----------------------------------------------------------------------------------
      1.48924      1.48924      1.51380         0.000426      0.000426     -0.007106
      4.47959      1.48924      1.51380        -0.000426      0.000426     -0.007106
      1.48924      4.47959      1.51380         0.000426     -0.000426     -0.007106
      4.47959      4.47959      1.51380        -0.000426     -0.000426     -0.007106
      1.48924      1.48924      4.45503         0.000426      0.000426      0.007106
      4.47959      1.48924      4.45503        -0.000426      0.000426      0.007106
      1.48924      4.47959      4.45503         0.000426     -0.000426      0.007106
      4.47959      4.47959      4.45503        -0.000426     -0.000426      0.007106
      2.98442      0.00000      0.00000        -0.000000      0.000000     -0.000000
      2.98442      2.98442      0.00000        -0.000000      0.000000     -0.000000
      0.00000      2.98442      0.00000        -0.000000      0.000000     -0.000000
      0.00000      0.00000      2.98442        -0.000000      0.000000     -0.000000
      2.98442      0.00000      2.98442        -0.000000      0.000000     -0.000000
      0.00000      2.98442      2.98442        -0.000000      0.000000     -0.000000
      0.00000      0.00000      0.00000        -0.000000      0.000000     -0.000000
      2.98442      2.98442      2.98442        -0.000000      0.000000     -0.000000
 -----------------------------------------------------------------------------------
    total drift:                                0.000000      0.000000     -0.000000


--------------------------------------------------------------------------------------------------------



  FREE ENERGIE OF THE ION-ELECTRON SYSTEM (eV)
  ---------------------------------------------------
  free  energy   TOTEN  =      -102.88479110 eV

  energy  without entropy=     -102.88201514  energy(sigma->0) =     -102.88340312



--------------------------------------------------------------------------------------------------------


    POTLOK:  cpu time    0.1361: real time    0.1364


--------------------------------------------------------------------------------------------------------




--------------------------------------------------------------------------------------------------------


  
 reached required accuracy - stopping structural energy minimisation
     LOOP+:  cpu time  372.5462: real time  373.1866
    4ORBIT:  cpu time    0.0000: real time    0.0000



 total charge     

# of ion       s       p       d       tot
------------------------------------------
    1        0.466   0.424   8.382   9.272
    2        0.464   0.420   8.375   9.259
    3        0.466   0.420   8.368   9.254
    4        0.464   0.424   8.370   9.258
    5        0.464   0.424   8.370   9.258
    6        0.466   0.420   8.368   9.254
    7        0.464   0.420   8.375   9.259
    8        0.466   0.424   8.382   9.272
    9        0.320   0.309   4.903   5.532
   10        0.324   0.315   4.914   5.553
   11        0.330   0.317   4.936   5.583
   12        0.335   0.310   4.959   5.604
   13        0.335   0.324   4.917   5.576
   14        0.325   0.313   4.958   5.596
   15        1.261   1.798   0.348   3.407
   16        1.273   1.838   0.357   3.468
--------------------------------------------------
tot          8.224   8.900  97.282 114.406



 magnetization (x)

# of ion       s       p       d       tot
------------------------------------------
    1       -0.011  -0.004   0.458   0.442
    2       -0.011  -0.009   0.440   0.420
    3       -0.010  -0.009   0.445   0.426
    4       -0.014  -0.003   0.460   0.443
    5       -0.014  -0.003   0.460   0.443
    6       -0.010  -0.009   0.445   0.426
    7       -0.011  -0.009   0.440   0.420
    8       -0.011  -0.004   0.458   0.442
    9        0.032   0.029   3.554   3.615
   10       -0.039  -0.045  -3.532  -3.617
   11        0.030   0.040   3.545   3.615
   12        0.033  -0.001   3.577   3.609
   13        0.023   0.023   3.529   3.575
   14        0.021   0.026   3.568   3.615
   15       -0.005  -0.091  -0.011  -0.107
   16        0.007  -0.045  -0.009  -0.048
--------------------------------------------------
tot          0.007  -0.114  17.827  17.719


 total amount of memory used by VASP MPI-rank0   103720. kBytes
=======================================================================

   base      :      30000. kBytes
   nonlr-proj:       6783. kBytes
   fftplans  :       1269. kBytes
   grid      :       6573. kBytes
   one-center:        497. kBytes
   wavefun   :      58598. kBytes

  
  
 General timing and accounting informations for this job:
 ========================================================
  
                  Total CPU time used (sec):      382.999
                            User time (sec):      361.994
                          System time (sec):       21.006
                         Elapsed time (sec):      384.194
  
                   Maximum memory used (kb):      133608.
                   Average memory used (kb):           0.
  
                          Minor page faults:      9511400
                          Major page faults:            7
                 Voluntary context switches:         1580
