 vasp.5.4.4.18Apr17-6-g9f103f2a35 (build May 21 2018 20:56:50) complex           
 executed on             LinuxGNU date 2021.10.15  15:42:34
 running on   12 total cores
 distrk:  each k-point on   12 cores,    1 groups
 distr:  one band on NCORES_PER_BAND=   1 cores,   12 groups


--------------------------------------------------------------------------------------------------------


 INCAR:
 POTCAR:    PAW_PBE Ni 02Aug2007                  
 POTCAR:    PAW_PBE Mn 06Sep2000                  
 POTCAR:    PAW_PBE In 08Apr2002                  

 ----------------------------------------------------------------------------- 
|                                                                             |
|           W    W    AA    RRRRR   N    N  II  N    N   GGGG   !!!           |
|           W    W   A  A   R    R  NN   N  II  NN   N  G    G  !!!           |
|           W    W  A    A  R    R  N N  N  II  N N  N  G       !!!           |
|           W WW W  AAAAAA  RRRRR   N  N N  II  N  N N  G  GGG   !            |
|           WW  WW  A    A  R   R   N   NN  II  N   NN  G    G                |
|           W    W  A    A  R    R  N    N  II  N    N   GGGG   !!!           |
|                                                                             |
|      For optimal performance we recommend to set                            |
|        NCORE= 4 - approx SQRT( number of cores)                             |
|      NCORE specifies how many cores store one orbital (NPAR=cpu/NCORE).     |
|      This setting can  greatly improve the performance of VASP for DFT.     |
|      The default,   NCORE=1            might be grossly inefficient         |
|      on modern multi-core architectures or massively parallel machines.     |
|      Do your own testing !!!!                                               |
|      Unfortunately you need to use the default for GW and RPA calculations. |
|      (for HF NCORE is supported but not extensively tested yet)             |
|                                                                             |
 ----------------------------------------------------------------------------- 

 POTCAR:    PAW_PBE Ni 02Aug2007                  
   VRHFIN =Ni:                                                                  
   LEXCH  = PE                                                                  
   EATOM  =  1077.6739 eV,   79.2068 Ry                                         
                                                                                
   TITEL  = PAW_PBE Ni 02Aug2007                                                
   LULTRA =        F    use ultrasoft PP ?                                      
   IUNSCR =        1    unscreen: 0-lin 1-nonlin 2-no                           
   RPACOR =    2.000    partial core radius                                     
   POMASS =   58.690; ZVAL   =   10.000    mass and valenz                      
   RCORE  =    2.300    outmost cutoff radius                                   
   RWIGS  =    2.430; RWIGS  =    1.286    wigner-seitz radius (au A)           
   ENMAX  =  269.532; ENMIN  =  202.149 eV                                      
   RCLOC  =    1.201    cutoff for local pot                                    
   LCOR   =        T    correct aug charges                                     
   LPAW   =        T    paw PP                                                  
   EAUG   =  544.565                                                            
   DEXC   =    0.000                                                            
   RMAX   =    2.357    core radius for proj-oper                               
   RAUG   =    1.300    factor for augmentation sphere                          
   RDEP   =    2.390    radius for radial grids                                 
   RDEPT  =    1.838    core radius for aug-charge                              
                                                                                
   Atomic configuration                                                         
    9 entries                                                                   
     n  l   j            E        occ.                                          
     1  0  0.50     -8206.4253   2.0000                                         
     2  0  0.50      -976.1748   2.0000                                         
     2  1  1.50      -839.0571   6.0000                                         
     3  0  0.50      -105.9991   2.0000                                         
     3  1  1.50       -66.4603   6.0000                                         
     3  2  2.50        -4.6458   9.0000                                         
     4  0  0.50        -4.4926   1.0000                                         
     4  1  1.50        -4.0817   0.0000                                         
     4  3  2.50        -1.3606   0.0000                                         
   Description                                                                  
     l       E           TYP  RCUT    TYP  RCUT                                 
     2     -4.6457903     23  2.300                                             
     2     -6.0063729     23  2.300                                             
     0     -4.4925590     23  2.300                                             
     0      5.0102601     23  2.300                                             
     1     -2.7211652     23  2.300                                             
     1     16.5183231     23  2.300                                             
  local pseudopotential read in
  partial core-charges read in
  partial kinetic energy density read in
  atomic valenz-charges read in
  non local Contribution for L=           2  read in
    real space projection operators read in
  non local Contribution for L=           2  read in
    real space projection operators read in
  non local Contribution for L=           0  read in
    real space projection operators read in
  non local Contribution for L=           0  read in
    real space projection operators read in
  non local Contribution for L=           1  read in
    real space projection operators read in
  non local Contribution for L=           1  read in
    real space projection operators read in
    PAW grid and wavefunctions read in

   number of l-projection  operators is LMAX  =           6
   number of lm-projection operators is LMMAX =          18

 POTCAR:    PAW_PBE Mn 06Sep2000                  
   VRHFIN =Mn: d6 s1                                                            
   LEXCH  = PE                                                                  
   EATOM  =   416.7541 eV,   30.6306 Ry                                         
                                                                                
   TITEL  = PAW_PBE Mn 06Sep2000                                                
   LULTRA =        F    use ultrasoft PP ?                                      
   IUNSCR =        1    unscreen: 0-lin 1-nonlin 2-no                           
   RPACOR =    2.000    partial core radius                                     
   POMASS =   54.938; ZVAL   =    7.000    mass and valenz                      
   RCORE  =    2.300    outmost cutoff radius                                   
   RWIGS  =    2.500; RWIGS  =    1.323    wigner-seitz radius (au A)           
   ENMAX  =  269.864; ENMIN  =  202.398 eV                                      
   RCLOC  =    1.725    cutoff for local pot                                    
   LCOR   =        T    correct aug charges                                     
   LPAW   =        T    paw PP                                                  
   EAUG   =  500.711                                                            
   DEXC   =    0.000                                                            
   RMAX   =    2.343    core radius for proj-oper                               
   RAUG   =    1.300    factor for augmentation sphere                          
   RDEP   =    2.338    radius for radial grids                                 
   RDEPT  =    1.911    core radius for aug-charge                              
                                                                                
   Atomic configuration                                                         
    9 entries                                                                   
     n  l   j            E        occ.                                          
     1  0  0.50     -6424.8288   2.0000                                         
     2  0  0.50      -739.1154   2.0000                                         
     2  1  1.50      -625.3949   6.0000                                         
     3  0  0.50       -81.6100   2.0000                                         
     3  1  1.50       -50.4667   6.0000                                         
     3  2  2.50        -3.3745   6.0000                                         
     4  0  0.50        -4.1331   1.0000                                         
     4  1  0.50        -4.0817   0.0000                                         
     4  3  2.50        -1.3606   0.0000                                         
   Description                                                                  
     l       E           TYP  RCUT    TYP  RCUT                                 
     2     -3.3744664     23  2.300                                             
     2     -4.7350490     23  2.300                                             
     0     -4.1331408     23  2.300                                             
     0      7.6656614     23  2.300                                             
     1     -2.7211652     23  2.300                                             
     1     20.4087390     23  2.300                                             
  local pseudopotential read in
  partial core-charges read in
  partial kinetic energy density read in
  atomic valenz-charges read in
  non local Contribution for L=           2  read in
    real space projection operators read in
  non local Contribution for L=           2  read in
    real space projection operators read in
  non local Contribution for L=           0  read in
    real space projection operators read in
  non local Contribution for L=           0  read in
    real space projection operators read in
  non local Contribution for L=           1  read in
    real space projection operators read in
  non local Contribution for L=           1  read in
    real space projection operators read in
    PAW grid and wavefunctions read in

   number of l-projection  operators is LMAX  =           6
   number of lm-projection operators is LMMAX =          18

 POTCAR:    PAW_PBE In 08Apr2002                  
   VRHFIN =In: s2p1                                                             
   LEXCH  = PE                                                                  
   EATOM  =    53.7908 eV,    3.9535 Ry                                         
                                                                                
   TITEL  = PAW_PBE In 08Apr2002                                                
   LULTRA =        F    use ultrasoft PP ?                                      
   IUNSCR =        1    unscreen: 0-lin 1-nonlin 2-no                           
   RPACOR =    2.400    partial core radius                                     
   POMASS =  114.820; ZVAL   =    3.000    mass and valenz                      
   RCORE  =    3.100    outmost cutoff radius                                   
   RWIGS  =    3.170; RWIGS  =    1.677    wigner-seitz radius (au A)           
   ENMAX  =   95.934; ENMIN  =   71.951 eV                                      
   ICORE  =        3    local potential                                         
   LCOR   =        T    correct aug charges                                     
   LPAW   =        T    paw PP                                                  
   EAUG   =  237.125                                                            
   DEXC   =    0.000                                                            
   RMAX   =    3.168    core radius for proj-oper                               
   RAUG   =    1.300    factor for augmentation sphere                          
   RDEP   =    3.187    radius for radial grids                                 
   RDEPT  =    2.711    core radius for aug-charge                              
                                                                                
   Atomic configuration                                                         
   13 entries                                                                   
     n  l   j            E        occ.                                          
     1  0  0.50    -27747.9169   2.0000                                         
     2  0  0.50     -4154.4438   2.0000                                         
     2  1  1.50     -3728.4305   6.0000                                         
     3  0  0.50      -788.3680   2.0000                                         
     3  1  1.50      -648.9215   6.0000                                         
     3  2  2.50      -432.5893  10.0000                                         
     4  0  0.50      -119.6363   2.0000                                         
     4  1  1.50       -78.1086   6.0000                                         
     4  2  2.50       -18.6227  10.0000                                         
     5  0  0.50        -8.2107   2.0000                                         
     5  1  0.50        -2.5185   1.0000                                         
     5  2  2.50        -1.3606   0.0000                                         
     4  3  2.50        -2.7212   0.0000                                         
   Description                                                                  
     l       E           TYP  RCUT    TYP  RCUT                                 
     0     -8.2107306     23  3.100                                             
     0     -6.1485975     23  3.100                                             
     1     -2.5184867     23  3.100                                             
     1      3.2427302     23  3.100                                             
     2     -1.3605826     23  3.100                                             
     3     -1.3605826     23  3.100                                             
  local pseudopotential read in
  partial core-charges read in
  partial kinetic energy density read in
  atomic valenz-charges read in
  non local Contribution for L=           0  read in
    real space projection operators read in
  non local Contribution for L=           0  read in
    real space projection operators read in
  non local Contribution for L=           1  read in
    real space projection operators read in
  non local Contribution for L=           1  read in
    real space projection operators read in
  non local Contribution for L=           2  read in
    real space projection operators read in
    PAW grid and wavefunctions read in

   number of l-projection  operators is LMAX  =           5
   number of lm-projection operators is LMMAX =          13

 Optimization of the real space projectors (new method)

 maximal supplied QI-value         = 16.25
 optimisation between [QCUT,QGAM] = [ 11.86, 23.89] = [ 39.41,159.82] Ry 
 Optimized for a Real-space Cutoff    1.33 Angstroem

   l    n(q)    QCUT    max X(q) W(low)/X(q) W(high)/X(q)  e(spline) 
   2      9    11.864    60.317    0.21E-03    0.51E-03    0.25E-06
   2      9    11.864    55.921    0.21E-03    0.51E-03    0.26E-06
   0      9    11.864    51.690    0.22E-03    0.30E-04    0.17E-06
   0      9    11.864    30.015    0.20E-03    0.28E-04    0.15E-06
   1      9    11.864    18.849    0.76E-04    0.33E-03    0.17E-06
   1      9    11.864    14.624    0.60E-04    0.28E-03    0.15E-06
 Optimization of the real space projectors (new method)

 maximal supplied QI-value         = 16.25
 optimisation between [QCUT,QGAM] = [ 11.86, 23.89] = [ 39.41,159.82] Ry 
 Optimized for a Real-space Cutoff    1.36 Angstroem

   l    n(q)    QCUT    max X(q) W(low)/X(q) W(high)/X(q)  e(spline) 
   2      9    11.864   110.144    0.49E-03    0.50E-03    0.21E-06
   2      9    11.864   103.200    0.49E-03    0.51E-03    0.22E-06
   0     10    11.864    68.437    0.12E-03    0.41E-04    0.21E-06
   0     10    11.864    33.971    0.11E-03    0.36E-04    0.19E-06
   1      9    11.864    17.065    0.24E-03    0.26E-03    0.93E-07
   1      9    11.864    12.540    0.19E-03    0.20E-03    0.80E-07
 Optimization of the real space projectors (new method)

 maximal supplied QI-value         = 12.09
 optimisation between [QCUT,QGAM] = [ 11.97, 23.95] = [ 40.14,160.58] Ry 
 Optimized for a Real-space Cutoff    1.63 Angstroem

   l    n(q)    QCUT    max X(q) W(low)/X(q) W(high)/X(q)  e(spline) 
   0     12    11.973   106.980    0.33E-03    0.16E-03    0.25E-05
   0     12    11.973    81.086    0.37E-03    0.18E-03    0.28E-05
   1     11    11.973    53.097    0.22E-03    0.42E-03    0.40E-05
   1     11    11.973    32.621    0.20E-03    0.40E-03    0.37E-05
   2     11    11.973     8.820    0.30E-03    0.17E-03    0.41E-06
  PAW_PBE Ni 02Aug2007                  :
 energy of atom  1       EATOM=-1077.6739
 kinetic energy error for atom=    0.0027 (will be added to EATOM!!)
  PAW_PBE Mn 06Sep2000                  :
 energy of atom  2       EATOM= -416.7541
 kinetic energy error for atom=    0.0022 (will be added to EATOM!!)
  PAW_PBE In 08Apr2002                  :
 energy of atom  3       EATOM=  -53.7908
 kinetic energy error for atom=    0.0000 (will be added to EATOM!!)


 POSCAR: Ni2MnIn                                 
  positions in direct lattice
  velocities in cartesian coordinates
 exchange correlation table for  LEXCH =        8
   RHO(1)=    0.500       N(1)  =     2000
   RHO(2)=  100.500       N(2)  =     4000



--------------------------------------------------------------------------------------------------------


 ion  position               nearest neighbor table
   1  0.250  0.250  0.269-  11 2.52  12 2.52  13 2.52  14 2.52   9 2.65  10 2.65  15 2.65  16 2.65
                             5 2.75   3 2.98   2 2.98   3 2.98   2 2.98
   2  0.750  0.250  0.269-  11 2.52  12 2.52  13 2.52  14 2.52   9 2.65  10 2.65  15 2.65  16 2.65
                             6 2.75   4 2.98   1 2.98   4 2.98   1 2.98
   3  0.250  0.750  0.269-  11 2.52  12 2.52  13 2.52  14 2.52   9 2.65  10 2.65  15 2.65  16 2.65
                             7 2.75   4 2.98   1 2.98   1 2.98   4 2.98
   4  0.750  0.750  0.269-  11 2.52  12 2.52  13 2.52  14 2.52   9 2.65  10 2.65  15 2.65  16 2.65
                             8 2.75   3 2.98   2 2.98   2 2.98   3 2.98
   5  0.250  0.250  0.731-  11 2.52  12 2.52  13 2.52  14 2.52   9 2.65  10 2.65  15 2.65  16 2.65
                             1 2.75   6 2.98   7 2.98   7 2.98   6 2.98
   6  0.750  0.250  0.731-  11 2.52  12 2.52  13 2.52  14 2.52   9 2.65  10 2.65  15 2.65  16 2.65
                             2 2.75   5 2.98   8 2.98   8 2.98   5 2.98
   7  0.250  0.750  0.731-  11 2.52  12 2.52  13 2.52  14 2.52   9 2.65  10 2.65  15 2.65  16 2.65
                             3 2.75   5 2.98   8 2.98   5 2.98   8 2.98
   8  0.750  0.750  0.731-  11 2.52  12 2.52  13 2.52  14 2.52   9 2.65  10 2.65  15 2.65  16 2.65
                             4 2.75   6 2.98   7 2.98   6 2.98   7 2.98
   9  0.500  0.000  0.000-   1 2.65   2 2.65   3 2.65   4 2.65   5 2.65   6 2.65   7 2.65   8 2.65
                            12 2.98  15 2.98  16 2.98  12 2.98  16 2.98  15 2.98
  10  0.000  0.500  0.000-   1 2.65   2 2.65   3 2.65   4 2.65   5 2.65   6 2.65   7 2.65   8 2.65
                            14 2.98  15 2.98  16 2.98  14 2.98  15 2.98  16 2.98
  11  0.000  0.000  0.500-   1 2.52   2 2.52   3 2.52   4 2.52   5 2.52   6 2.52   7 2.52   8 2.52
                            12 2.98  14 2.98  15 2.98  15 2.98  14 2.98  12 2.98
  12  0.500  0.000  0.500-   1 2.52   2 2.52   3 2.52   4 2.52   5 2.52   6 2.52   7 2.52   8 2.52
                             9 2.98  11 2.98  13 2.98   9 2.98  13 2.98  11 2.98
  13  0.500  0.500  0.500-   1 2.52   2 2.52   3 2.52   4 2.52   5 2.52   6 2.52   7 2.52   8 2.52
                            12 2.98  14 2.98  16 2.98  16 2.98  12 2.98  14 2.98
  14  0.000  0.500  0.500-   1 2.52   2 2.52   3 2.52   4 2.52   5 2.52   6 2.52   7 2.52   8 2.52
                            10 2.98  11 2.98  13 2.98  10 2.98  11 2.98  13 2.98
  15  0.000  0.000  0.000-   1 2.65   2 2.65   3 2.65   4 2.65   5 2.65   6 2.65   7 2.65   8 2.65
                             9 2.98  10 2.98  11 2.98  11 2.98  10 2.98   9 2.98
  16  0.500  0.500  0.000-   1 2.65   2 2.65   3 2.65   4 2.65   5 2.65   6 2.65   7 2.65   8 2.65
                             9 2.98  10 2.98  13 2.98  13 2.98   9 2.98  10 2.98

  LATTYP: Found a simple cubic cell.
 ALAT       =     5.9691710738
  
  Lattice vectors:
  
 A1 = (   5.9691710738,   0.0000000000,   0.0000000000)
 A2 = (   0.0000000000,   5.9691710738,   0.0000000000)
 A3 = (   0.0000000000,   0.0000000000,   5.9691710738)


Analysis of symmetry for initial positions (statically):
=====================================================================
 Subroutine PRICEL returns following result:
 
  LATTYP: Found a simple tetragonal cell.
 ALAT       =     4.2208413444
 C/A-ratio  =     1.4142135624
  
  Lattice vectors:
  
 A1 = (   2.9845855369,  -2.9845855369,   0.0000000000)
 A2 = (  -2.9845855369,  -2.9845855369,   0.0000000000)
 A3 = (   0.0000000000,   0.0000000000,  -5.9691710738)
 
   2 primitive cells build up your supercell.
 

 Routine SETGRP: Setting up the symmetry group for a 
 simple cubic supercell.


 Subroutine GETGRP returns: Found 16 space group operations
 (whereof 16 operations were pure point group operations)
 out of a pool of 48 trial point group operations.


The static configuration has the point symmetry D_4h.


Analysis of symmetry for dynamics (positions and initial velocities):
=====================================================================
 Subroutine PRICEL returns following result:
 
  LATTYP: Found a simple tetragonal cell.
 ALAT       =     4.2208413444
 C/A-ratio  =     1.4142135624
  
  Lattice vectors:
  
 A1 = (   2.9845855369,  -2.9845855369,   0.0000000000)
 A2 = (  -2.9845855369,  -2.9845855369,   0.0000000000)
 A3 = (   0.0000000000,   0.0000000000,  -5.9691710738)
 
   2 primitive cells build up your supercell.
 

 Routine SETGRP: Setting up the symmetry group for a 
 simple cubic supercell.


 Subroutine GETGRP returns: Found 16 space group operations
 (whereof 16 operations were pure point group operations)
 out of a pool of 48 trial point group operations.


The dynamic configuration has the point symmetry D_4h.


Analysis of structural, dynamic, and magnetic symmetry:
=====================================================================
 Subroutine PRICEL returns following result:
 
  LATTYP: Found a simple tetragonal cell.
 ALAT       =     4.2208413444
 C/A-ratio  =     1.4142135624
  
  Lattice vectors:
  
 A1 = (   2.9845855369,  -2.9845855369,   0.0000000000)
 A2 = (  -2.9845855369,  -2.9845855369,   0.0000000000)
 A3 = (   0.0000000000,   0.0000000000,  -5.9691710738)
 
   2 primitive cells build up your supercell.
 

 Routine SETGRP: Setting up the symmetry group for a 
 simple cubic supercell.


 Subroutine GETGRP returns: Found 16 space group operations
 (whereof 16 operations were pure point group operations)
 out of a pool of 48 trial point group operations.


The magnetic configuration has the point symmetry D_4h.


 Subroutine INISYM returns: Found 16 space group operations
 (whereof 16 operations are pure point group operations),
 and found     2 'primitive' translations



 KPOINTS: k-points                                

Automatic generation of k-mesh.
Space group operators:
 irot       det(A)        alpha          n_x          n_y          n_z        tau_x        tau_y        tau_z
    1     1.000000     0.000002     1.000000     0.000000     0.000000     0.000000    -0.000000    -0.000000
    2    -1.000000     0.000002     1.000000     0.000000     0.000000     0.000000    -0.000000    -0.000000
    3     1.000000    90.000000     0.000000     0.000000    -1.000000     0.000000    -0.000000    -0.000000
    4    -1.000000    90.000000     0.000000     0.000000    -1.000000     0.000000    -0.000000    -0.000000
    5     1.000000   179.999999     0.000000     0.000000     1.000000     0.000000    -0.000000    -0.000000
    6    -1.000000   179.999999     0.000000     0.000000     1.000000     0.000000    -0.000000    -0.000000
    7     1.000000    90.000000     0.000000     0.000000     1.000000     0.000000    -0.000000    -0.000000
    8    -1.000000    90.000000     0.000000     0.000000     1.000000     0.000000    -0.000000    -0.000000
    9     1.000000   179.999999     1.000000     0.000000     0.000000     0.000000    -0.000000    -0.000000
   10    -1.000000   179.999999     1.000000     0.000000     0.000000     0.000000    -0.000000    -0.000000
   11     1.000000   179.999999     0.707107     0.707107     0.000000     0.000000    -0.000000    -0.000000
   12    -1.000000   179.999999     0.707107     0.707107     0.000000     0.000000    -0.000000    -0.000000
   13     1.000000   179.999999     0.000000     1.000000     0.000000     0.000000    -0.000000    -0.000000
   14    -1.000000   179.999999     0.000000     1.000000     0.000000     0.000000    -0.000000    -0.000000
   15     1.000000   179.999999     0.707107    -0.707107     0.000000     0.000000    -0.000000    -0.000000
   16    -1.000000   179.999999     0.707107    -0.707107     0.000000     0.000000    -0.000000    -0.000000
 
 Subroutine IBZKPT returns following result:
 ===========================================
 
 Found     40 irreducible k-points:
 
 Following reciprocal coordinates:
            Coordinates               Weight
  0.000000  0.000000  0.000000      1.000000
  0.142857  0.000000  0.000000      4.000000
  0.285714  0.000000  0.000000      4.000000
  0.428571  0.000000  0.000000      4.000000
  0.142857  0.142857  0.000000      4.000000
  0.285714  0.142857  0.000000      8.000000
  0.428571  0.142857  0.000000      8.000000
  0.285714  0.285714  0.000000      4.000000
  0.428571  0.285714  0.000000      8.000000
  0.428571  0.428571  0.000000      4.000000
  0.000000  0.000000  0.142857      2.000000
  0.142857  0.000000  0.142857      8.000000
  0.285714  0.000000  0.142857      8.000000
  0.428571  0.000000  0.142857      8.000000
  0.142857  0.142857  0.142857      8.000000
  0.285714  0.142857  0.142857     16.000000
  0.428571  0.142857  0.142857     16.000000
  0.285714  0.285714  0.142857      8.000000
  0.428571  0.285714  0.142857     16.000000
  0.428571  0.428571  0.142857      8.000000
  0.000000  0.000000  0.285714      2.000000
  0.142857  0.000000  0.285714      8.000000
  0.285714  0.000000  0.285714      8.000000
  0.428571  0.000000  0.285714      8.000000
  0.142857  0.142857  0.285714      8.000000
  0.285714  0.142857  0.285714     16.000000
  0.428571  0.142857  0.285714     16.000000
  0.285714  0.285714  0.285714      8.000000
  0.428571  0.285714  0.285714     16.000000
  0.428571  0.428571  0.285714      8.000000
  0.000000  0.000000  0.428571      2.000000
  0.142857  0.000000  0.428571      8.000000
  0.285714  0.000000  0.428571      8.000000
  0.428571  0.000000  0.428571      8.000000
  0.142857  0.142857  0.428571      8.000000
  0.285714  0.142857  0.428571     16.000000
  0.428571  0.142857  0.428571     16.000000
  0.285714  0.285714  0.428571      8.000000
  0.428571  0.285714  0.428571     16.000000
  0.428571  0.428571  0.428571      8.000000
 
 Following cartesian coordinates:
            Coordinates               Weight
  0.000000  0.000000  0.000000      1.000000
  0.137851  0.000000  0.000000      4.000000
  0.275702  0.000000  0.000000      4.000000
  0.413553  0.000000  0.000000      4.000000
  0.137851  0.137851  0.000000      4.000000
  0.275702  0.137851  0.000000      8.000000
  0.413553  0.137851  0.000000      8.000000
  0.275702  0.275702  0.000000      4.000000
  0.413553  0.275702  0.000000      8.000000
  0.413553  0.413553  0.000000      4.000000
  0.000000  0.000000  0.137851      2.000000
  0.137851  0.000000  0.137851      8.000000
  0.275702  0.000000  0.137851      8.000000
  0.413553  0.000000  0.137851      8.000000
  0.137851  0.137851  0.137851      8.000000
  0.275702  0.137851  0.137851     16.000000
  0.413553  0.137851  0.137851     16.000000
  0.275702  0.275702  0.137851      8.000000
  0.413553  0.275702  0.137851     16.000000
  0.413553  0.413553  0.137851      8.000000
  0.000000  0.000000  0.275702      2.000000
  0.137851  0.000000  0.275702      8.000000
  0.275702  0.000000  0.275702      8.000000
  0.413553  0.000000  0.275702      8.000000
  0.137851  0.137851  0.275702      8.000000
  0.275702  0.137851  0.275702     16.000000
  0.413553  0.137851  0.275702     16.000000
  0.275702  0.275702  0.275702      8.000000
  0.413553  0.275702  0.275702     16.000000
  0.413553  0.413553  0.275702      8.000000
  0.000000  0.000000  0.413553      2.000000
  0.137851  0.000000  0.413553      8.000000
  0.275702  0.000000  0.413553      8.000000
  0.413553  0.000000  0.413553      8.000000
  0.137851  0.137851  0.413553      8.000000
  0.275702  0.137851  0.413553     16.000000
  0.413553  0.137851  0.413553     16.000000
  0.275702  0.275702  0.413553      8.000000
  0.413553  0.275702  0.413553     16.000000
  0.413553  0.413553  0.413553      8.000000
 


--------------------------------------------------------------------------------------------------------




 Dimension of arrays:
   k-points           NKPTS =     40   k-points in BZ     NKDIM =     40   number of bands    NBANDS=     96
   number of dos      NEDOS =    301   number of ions     NIONS =     16
   non local maximal  LDIM  =      6   non local SUM 2l+1 LMDIM =     18
   total plane-waves  NPLWV =  46656
   max r-space proj   IRMAX =   4027   max aug-charges    IRDMAX=  24943
   dimension x,y,z NGX =    36 NGY =   36 NGZ =   36
   dimension x,y,z NGXF=    72 NGYF=   72 NGZF=   72
   support grid    NGXF=    72 NGYF=   72 NGZF=   72
   ions per type =               8   6   2
   NGX,Y,Z   is equivalent  to a cutoff of  10.03, 10.03, 10.03 a.u.
   NGXF,Y,Z  is equivalent  to a cutoff of  20.05, 20.05, 20.05 a.u.

 SYSTEM =  Testrun for NiMnIn                      
 POSCAR =  Ni2MnIn                                 

 Startparameter for this run:
   NWRITE =      2    write-flag & timer
   PREC   = normal    normal or accurate (medium, high low for compatibility)
   ISTART =      0    job   : 0-new  1-cont  2-samecut
   ICHARG =      2    charge: 1-file 2-atom 10-const
   ISPIN  =      2    spin polarized calculation?
   LNONCOLLINEAR =      F non collinear calculations
   LSORBIT =      F    spin-orbit coupling
   INIWAV =      1    electr: 0-lowe 1-rand  2-diag
   LASPH  =      F    aspherical Exc in radial PAW
   METAGGA=      F    non-selfconsistent MetaGGA calc.

 Electronic Relaxation 1
   ENCUT  =  550.0 eV  40.42 Ry    6.36 a.u.  11.41 11.41 11.41*2*pi/ulx,y,z
   ENINI  =  550.0     initial cutoff
   ENAUG  =  544.6 eV  augmentation charge cutoff
   NELM   =     60;   NELMIN=  2; NELMDL= -5     # of ELM steps 
   EDIFF  = 0.1E-04   stopping-criterion for ELM
   LREAL  =      T    real-space projection
   NLSPLINE    = F    spline interpolate recip. space projectors
   LCOMPAT=      F    compatible to vasp.4.4
   GGA_COMPAT  = T    GGA compatible to vasp.4.4-vasp.4.6
   LMAXPAW     = -100 max onsite density
   LMAXMIX     =    2 max onsite mixed and CHGCAR
   VOSKOWN=      0    Vosko Wilk Nusair interpolation
   ROPT   =   -0.00050  -0.00050  -0.00050
 Ionic relaxation
   EDIFFG = -.1E-01   stopping-criterion for IOM
   NSW    =   1000    number of steps for IOM
   NBLOCK =      1;   KBLOCK =   1000    inner block; outer block 
   IBRION =      2    ionic relax: 0-MD 1-quasi-New 2-CG
   NFREE  =      1    steps in history (QN), initial steepest desc. (CG)
   ISIF   =      2    stress and relaxation
   IWAVPR =     11    prediction:  0-non 1-charg 2-wave 3-comb
   ISYM   =      2    0-nonsym 1-usesym 2-fastsym
   LCORR  =      T    Harris-Foulkes like correction to forces

   POTIM  = 0.5000    time-step for ionic-motion
   TEIN   =    0.0    initial temperature
   TEBEG  =    0.0;   TEEND  =   0.0 temperature during run
   SMASS  =  -3.00    Nose mass-parameter (am)
   estimated Nose-frequenzy (Omega)   =  0.10E-29 period in steps =****** mass=  -0.814E-27a.u.
   SCALEE = 1.0000    scale energy and forces
   NPACO  =    256;   APACO  = 16.0  distance and # of slots for P.C.
   PSTRESS=    0.0 pullay stress

  Mass of Ions in am
   POMASS =  58.69 54.94114.82
  Ionic Valenz
   ZVAL   =  10.00  7.00  3.00
  Atomic Wigner-Seitz radii
   RWIGS  =  -1.00 -1.00 -1.00
  virtual crystal weights 
   VCA    =   1.00  1.00  1.00
   NELECT =     128.0000    total number of electrons
   NUPDOWN=      -1.0000    fix difference up-down

 DOS related values:
   EMIN   =  10.00;   EMAX   =-10.00  energy-range for DOS
   EFERMI =   0.00
   ISMEAR =     0;   SIGMA  =   0.02  broadening in eV -4-tet -1-fermi 0-gaus

 Electronic relaxation 2 (details)
   IALGO  =     68    algorithm
   LDIAG  =      T    sub-space diagonalisation (order eigenvalues)
   LSUBROT=      F    optimize rotation matrix (better conditioning)
   TURBO    =      0    0=normal 1=particle mesh
   IRESTART =      0    0=no restart 2=restart with 2 vectors
   NREBOOT  =      0    no. of reboots
   NMIN     =      0    reboot dimension
   EREF     =   0.00    reference energy to select bands
   IMIX   =      4    mixing-type and parameters
     AMIX     =   0.40;   BMIX     =  1.00
     AMIX_MAG =   1.60;   BMIX_MAG =  1.00
     AMIN     =   0.10
     WC   =   100.;   INIMIX=   1;  MIXPRE=   1;  MAXMIX= -45

 Intra band minimization:
   WEIMIN = 0.0010     energy-eigenvalue tresh-hold
   EBREAK =  0.26E-07  absolut break condition
   DEPER  =   0.30     relativ break condition  

   TIME   =   0.40     timestep for ELM

  volume/ion in A,a.u.               =      13.29        89.71
  Fermi-wavevector in a.u.,A,eV,Ry     =   1.382178  2.611939 25.992806  1.910417
  Thomas-Fermi vector in A             =   2.506894

 Write flags
   LWAVE        =      F    write WAVECAR
   LDOWNSAMPLE  =      F    k-point downsampling of WAVECAR
   LCHARG       =      T    write CHGCAR
   LVTOT        =      F    write LOCPOT, total local potential
   LVHAR        =      F    write LOCPOT, Hartree potential only
   LELF         =      F    write electronic localiz. function (ELF)
   LORBIT       =     11    0 simple, 1 ext, 2 COOP (PROOUT), +10 PAW based schemes


 Dipole corrections
   LMONO  =      F    monopole corrections only (constant potential shift)
   LDIPOL =      F    correct potential (dipole corrections)
   IDIPOL =      0    1-x, 2-y, 3-z, 4-all directions 
   EPSILON=  1.0000000 bulk dielectric constant

 Exchange correlation treatment:
   GGA     =    --    GGA type
   LEXCH   =     8    internal setting for exchange type
   VOSKOWN=      0    Vosko Wilk Nusair interpolation
   LHFCALC =     F    Hartree Fock is set to
   LHFONE  =     F    Hartree Fock one center treatment
   AEXX    =    0.0000 exact exchange contribution

 Linear response parameters
   LEPSILON=     F    determine dielectric tensor
   LRPA    =     F    only Hartree local field effects (RPA)
   LNABLA  =     F    use nabla operator in PAW spheres
   LVEL    =     F    velocity operator in full k-point grid
   LINTERFAST=   F  fast interpolation
   KINTER  =     0    interpolate to denser k-point grid
   CSHIFT  =0.1000    complex shift for real part using Kramers Kronig
   OMEGAMAX=  -1.0    maximum frequency
   DEG_THRESHOLD= 0.2000000E-02 threshold for treating states as degnerate
   RTIME   =   -0.100 relaxation time in fs
  (WPLASMAI=    0.000 imaginary part of plasma frequency in eV, 0.658/RTIME)
   DFIELD  = 0.0000000 0.0000000 0.0000000 field for delta impulse in time

 Orbital magnetization related:
   ORBITALMAG=     F  switch on orbital magnetization
   LCHIMAG   =     F  perturbation theory with respect to B field
   DQ        =  0.001000  dq finite difference perturbation B field
   LLRAUG    =     F  two centre corrections for induced B field



--------------------------------------------------------------------------------------------------------


 conjugate gradient relaxation of ions
 charge density and potential will be updated during run
 spin polarized calculation
 RMM-DIIS sequential band-by-band and
  variant of blocked Davidson during initial phase
 perform sub-space diagonalisation
    before iterative eigenvector-optimisation
 modified Broyden-mixing scheme, WC =      100.0
 initial mixing is a Kerker type mixing with AMIX =  0.4000 and BMIX =      1.0000
 Hartree-type preconditioning will be used
 using additional bands           32
 real space projection scheme for non local part
 use partial core corrections
 calculate Harris-corrections to forces   (improved forces if not selfconsistent)
 use gradient corrections 
 use of overlap-Matrix (Vanderbilt PP)
 Gauss-broadening in eV      SIGMA  =   0.02


--------------------------------------------------------------------------------------------------------


  energy-cutoff  :      550.00
  volume of cell :      212.69
      direct lattice vectors                 reciprocal lattice vectors
     5.969171074  0.000000000  0.000000000     0.167527449  0.000000000  0.000000000
     0.000000000  5.969171074  0.000000000     0.000000000  0.167527449  0.000000000
     0.000000000  0.000000000  5.969171074     0.000000000  0.000000000  0.167527449

  length of vectors
     5.969171074  5.969171074  5.969171074     0.167527449  0.167527449  0.167527449



 k-points in units of 2pi/SCALE and weight: k-points                                
   0.00000000  0.00000000  0.00000000       0.003
   0.13785116  0.00000000  0.00000000       0.012
   0.27570232  0.00000000  0.00000000       0.012
   0.41355347  0.00000000  0.00000000       0.012
   0.13785116  0.13785116  0.00000000       0.012
   0.27570232  0.13785116  0.00000000       0.023
   0.41355347  0.13785116  0.00000000       0.023
   0.27570232  0.27570232  0.00000000       0.012
   0.41355347  0.27570232  0.00000000       0.023
   0.41355347  0.41355347  0.00000000       0.012
   0.00000000  0.00000000  0.13785116       0.006
   0.13785116  0.00000000  0.13785116       0.023
   0.27570232  0.00000000  0.13785116       0.023
   0.41355347  0.00000000  0.13785116       0.023
   0.13785116  0.13785116  0.13785116       0.023
   0.27570232  0.13785116  0.13785116       0.047
   0.41355347  0.13785116  0.13785116       0.047
   0.27570232  0.27570232  0.13785116       0.023
   0.41355347  0.27570232  0.13785116       0.047
   0.41355347  0.41355347  0.13785116       0.023
   0.00000000  0.00000000  0.27570232       0.006
   0.13785116  0.00000000  0.27570232       0.023
   0.27570232  0.00000000  0.27570232       0.023
   0.41355347  0.00000000  0.27570232       0.023
   0.13785116  0.13785116  0.27570232       0.023
   0.27570232  0.13785116  0.27570232       0.047
   0.41355347  0.13785116  0.27570232       0.047
   0.27570232  0.27570232  0.27570232       0.023
   0.41355347  0.27570232  0.27570232       0.047
   0.41355347  0.41355347  0.27570232       0.023
   0.00000000  0.00000000  0.41355347       0.006
   0.13785116  0.00000000  0.41355347       0.023
   0.27570232  0.00000000  0.41355347       0.023
   0.41355347  0.00000000  0.41355347       0.023
   0.13785116  0.13785116  0.41355347       0.023
   0.27570232  0.13785116  0.41355347       0.047
   0.41355347  0.13785116  0.41355347       0.047
   0.27570232  0.27570232  0.41355347       0.023
   0.41355347  0.27570232  0.41355347       0.047
   0.41355347  0.41355347  0.41355347       0.023

 k-points in reciprocal lattice and weights: k-points                                
   0.00000000  0.00000000  0.00000000       0.003
   0.14285714  0.00000000  0.00000000       0.012
   0.28571429  0.00000000  0.00000000       0.012
   0.42857143  0.00000000  0.00000000       0.012
   0.14285714  0.14285714  0.00000000       0.012
   0.28571429  0.14285714  0.00000000       0.023
   0.42857143  0.14285714  0.00000000       0.023
   0.28571429  0.28571429  0.00000000       0.012
   0.42857143  0.28571429  0.00000000       0.023
   0.42857143  0.42857143  0.00000000       0.012
   0.00000000  0.00000000  0.14285714       0.006
   0.14285714  0.00000000  0.14285714       0.023
   0.28571429  0.00000000  0.14285714       0.023
   0.42857143  0.00000000  0.14285714       0.023
   0.14285714  0.14285714  0.14285714       0.023
   0.28571429  0.14285714  0.14285714       0.047
   0.42857143  0.14285714  0.14285714       0.047
   0.28571429  0.28571429  0.14285714       0.023
   0.42857143  0.28571429  0.14285714       0.047
   0.42857143  0.42857143  0.14285714       0.023
   0.00000000  0.00000000  0.28571429       0.006
   0.14285714  0.00000000  0.28571429       0.023
   0.28571429  0.00000000  0.28571429       0.023
   0.42857143  0.00000000  0.28571429       0.023
   0.14285714  0.14285714  0.28571429       0.023
   0.28571429  0.14285714  0.28571429       0.047
   0.42857143  0.14285714  0.28571429       0.047
   0.28571429  0.28571429  0.28571429       0.023
   0.42857143  0.28571429  0.28571429       0.047
   0.42857143  0.42857143  0.28571429       0.023
   0.00000000  0.00000000  0.42857143       0.006
   0.14285714  0.00000000  0.42857143       0.023
   0.28571429  0.00000000  0.42857143       0.023
   0.42857143  0.00000000  0.42857143       0.023
   0.14285714  0.14285714  0.42857143       0.023
   0.28571429  0.14285714  0.42857143       0.047
   0.42857143  0.14285714  0.42857143       0.047
   0.28571429  0.28571429  0.42857143       0.023
   0.42857143  0.28571429  0.42857143       0.047
   0.42857143  0.42857143  0.42857143       0.023

 position of ions in fractional coordinates (direct lattice) 
   0.25000000  0.25000000  0.26940902
   0.75000000  0.25000000  0.26940902
   0.25000000  0.75000000  0.26940902
   0.75000000  0.75000000  0.26940902
   0.25000000  0.25000000  0.73059098
   0.75000000  0.25000000  0.73059098
   0.25000000  0.75000000  0.73059098
   0.75000000  0.75000000  0.73059098
   0.50000000  0.00000000  0.00000000
   0.00000000  0.50000000  0.00000000
   0.00000000  0.00000000  0.50000000
   0.50000000  0.00000000  0.50000000
   0.50000000  0.50000000  0.50000000
   0.00000000  0.50000000  0.50000000
   0.00000000  0.00000000  0.00000000
   0.50000000  0.50000000  0.00000000

 position of ions in cartesian coordinates  (Angst):
   1.49229277  1.49229277  1.60814850
   4.47687831  1.49229277  1.60814850
   1.49229277  4.47687831  1.60814850
   4.47687831  4.47687831  1.60814850
   1.49229277  1.49229277  4.36102257
   4.47687831  1.49229277  4.36102257
   1.49229277  4.47687831  4.36102257
   4.47687831  4.47687831  4.36102257
   2.98458554  0.00000000  0.00000000
   0.00000000  2.98458554  0.00000000
   0.00000000  0.00000000  2.98458554
   2.98458554  0.00000000  2.98458554
   2.98458554  2.98458554  2.98458554
   0.00000000  2.98458554  2.98458554
   0.00000000  0.00000000  0.00000000
   2.98458554  2.98458554  0.00000000



--------------------------------------------------------------------------------------------------------


 k-point  1 :   0.0000 0.0000 0.0000  plane waves:    6235
 k-point  2 :   0.1429 0.0000 0.0000  plane waves:    6227
 k-point  3 :   0.2857 0.0000 0.0000  plane waves:    6243
 k-point  4 :   0.4286 0.0000 0.0000  plane waves:    6238
 k-point  5 :   0.1429 0.1429 0.0000  plane waves:    6236
 k-point  6 :   0.2857 0.1429 0.0000  plane waves:    6232
 k-point  7 :   0.4286 0.1429 0.0000  plane waves:    6230
 k-point  8 :   0.2857 0.2857 0.0000  plane waves:    6234
 k-point  9 :   0.4286 0.2857 0.0000  plane waves:    6217
 k-point 10 :   0.4286 0.4286 0.0000  plane waves:    6234
 k-point 11 :   0.0000 0.0000 0.1429  plane waves:    6227
 k-point 12 :   0.1429 0.0000 0.1429  plane waves:    6236
 k-point 13 :   0.2857 0.0000 0.1429  plane waves:    6232
 k-point 14 :   0.4286 0.0000 0.1429  plane waves:    6230
 k-point 15 :   0.1429 0.1429 0.1429  plane waves:    6241
 k-point 16 :   0.2857 0.1429 0.1429  plane waves:    6228
 k-point 17 :   0.4286 0.1429 0.1429  plane waves:    6245
 k-point 18 :   0.2857 0.2857 0.1429  plane waves:    6222
 k-point 19 :   0.4286 0.2857 0.1429  plane waves:    6227
 k-point 20 :   0.4286 0.4286 0.1429  plane waves:    6227
 k-point 21 :   0.0000 0.0000 0.2857  plane waves:    6243
 k-point 22 :   0.1429 0.0000 0.2857  plane waves:    6232
 k-point 23 :   0.2857 0.0000 0.2857  plane waves:    6234
 k-point 24 :   0.4286 0.0000 0.2857  plane waves:    6217
 k-point 25 :   0.1429 0.1429 0.2857  plane waves:    6228
 k-point 26 :   0.2857 0.1429 0.2857  plane waves:    6222
 k-point 27 :   0.4286 0.1429 0.2857  plane waves:    6227
 k-point 28 :   0.2857 0.2857 0.2857  plane waves:    6223
 k-point 29 :   0.4286 0.2857 0.2857  plane waves:    6226
 k-point 30 :   0.4286 0.4286 0.2857  plane waves:    6208
 k-point 31 :   0.0000 0.0000 0.4286  plane waves:    6238
 k-point 32 :   0.1429 0.0000 0.4286  plane waves:    6230
 k-point 33 :   0.2857 0.0000 0.4286  plane waves:    6217
 k-point 34 :   0.4286 0.0000 0.4286  plane waves:    6234
 k-point 35 :   0.1429 0.1429 0.4286  plane waves:    6245
 k-point 36 :   0.2857 0.1429 0.4286  plane waves:    6227
 k-point 37 :   0.4286 0.1429 0.4286  plane waves:    6227
 k-point 38 :   0.2857 0.2857 0.4286  plane waves:    6226
 k-point 39 :   0.4286 0.2857 0.4286  plane waves:    6208
 k-point 40 :   0.4286 0.4286 0.4286  plane waves:    6179

 maximum and minimum number of plane-waves per node :      6245     6179

 maximum number of plane-waves:      6245
 maximum index in each direction: 
   IXMAX=   11   IYMAX=   11   IZMAX=   11
   IXMIN=  -11   IYMIN=  -11   IZMIN=  -11


 serial   3D FFT for wavefunctions
 parallel 3D FFT for charge:
    minimum data exchange during FFTs selected (reduces bandwidth)


 total amount of memory used by VASP MPI-rank0   112078. kBytes
=======================================================================

   base      :      30000. kBytes
   nonlr-proj:       6770. kBytes
   fftplans  :       1269. kBytes
   grid      :       6573. kBytes
   one-center:        497. kBytes
   wavefun   :      66969. kBytes

     INWAV:  cpu time    0.0000: real time    0.0000
 Broyden mixing: mesh for mixing (old mesh)
   NGX = 23   NGY = 23   NGZ = 23
  (NGX  = 72   NGY  = 72   NGZ  = 72)
  gives a total of  12167 points

 initial charge density was supplied:
 charge density of overlapping atoms calculated
 number of electron     128.0000000 magnetization      24.8000000
 keeping initial charge density in first step


--------------------------------------------------------------------------------------------------------


 Maximum index for non-local projection operator         3887
 Maximum index for augmentation-charges         2111 (set IRDMAX)


--------------------------------------------------------------------------------------------------------


 First call to EWALD:  gamma=   0.297
 Maximum number of real-space cells 3x 3x 3
 Maximum number of reciprocal cells 3x 3x 3

    FEWALD:  cpu time    0.0021: real time    0.0021


--------------------------------------- Iteration      1(   1)  ---------------------------------------


    POTLOK:  cpu time    0.1046: real time    0.1106
    SETDIJ:  cpu time    0.0376: real time    0.0376
     EDDAV:  cpu time   27.8003: real time   27.8415
       DOS:  cpu time    0.0040: real time    0.0041
    --------------------------------------------
      LOOP:  cpu time   27.9464: real time   27.9938

 eigenvalue-minimisations  : 15360
 total energy-change (2. order) : 0.1062431E+04  (-0.5334268E+04)
 number of electron     128.0000000 magnetization      24.8000000
 augmentation part      128.0000000 magnetization      24.8000000

 Free energy of the ion-electron system (eV)
  ---------------------------------------------------
  alpha Z        PSCENC =       529.06042897
  Ewald energy   TEWEN  =     -9263.07932551
  -Hartree energ DENC   =     -3155.54049303
  -exchange      EXHF   =         0.00000000
  -V(xc)+E(xc)   XCENC  =        78.53031812
  PAW double counting   =     10320.96726947   -10647.99417394
  entropy T*S    EENTRO =        -0.00205516
  eigenvalues    EBANDS =      1971.02731378
  atomic energy  EATOM  =     11229.46195210
  Solvation  Ediel_sol  =         0.00000000
  ---------------------------------------------------
  free energy    TOTEN  =      1062.43123479 eV

  energy without entropy =     1062.43328996  energy(sigma->0) =     1062.43226237


--------------------------------------------------------------------------------------------------------




--------------------------------------- Iteration      1(   2)  ---------------------------------------


     EDDAV:  cpu time   28.6543: real time   28.6804
       DOS:  cpu time    0.0068: real time    0.0068
    --------------------------------------------
      LOOP:  cpu time   28.6611: real time   28.6871

 eigenvalue-minimisations  : 15360
 total energy-change (2. order) :-0.1063260E+04  (-0.1010488E+04)
 number of electron     128.0000000 magnetization      24.8000000
 augmentation part      128.0000000 magnetization      24.8000000

 Free energy of the ion-electron system (eV)
  ---------------------------------------------------
  alpha Z        PSCENC =       529.06042897
  Ewald energy   TEWEN  =     -9263.07932551
  -Hartree energ DENC   =     -3155.54049303
  -exchange      EXHF   =         0.00000000
  -V(xc)+E(xc)   XCENC  =        78.53031812
  PAW double counting   =     10320.96726947   -10647.99417394
  entropy T*S    EENTRO =        -0.00310980
  eigenvalues    EBANDS =       907.76846901
  atomic energy  EATOM  =     11229.46195210
  Solvation  Ediel_sol  =         0.00000000
  ---------------------------------------------------
  free energy    TOTEN  =        -0.82866461 eV

  energy without entropy =       -0.82555481  energy(sigma->0) =       -0.82710971


--------------------------------------------------------------------------------------------------------




--------------------------------------- Iteration      1(   3)  ---------------------------------------


     EDDAV:  cpu time   28.7801: real time   28.8056
       DOS:  cpu time    0.0041: real time    0.0041
    --------------------------------------------
      LOOP:  cpu time   28.7843: real time   28.8097

 eigenvalue-minimisations  : 16128
 total energy-change (2. order) :-0.1115304E+03  (-0.9674687E+02)
 number of electron     128.0000000 magnetization      24.8000000
 augmentation part      128.0000000 magnetization      24.8000000

 Free energy of the ion-electron system (eV)
  ---------------------------------------------------
  alpha Z        PSCENC =       529.06042897
  Ewald energy   TEWEN  =     -9263.07932551
  -Hartree energ DENC   =     -3155.54049303
  -exchange      EXHF   =         0.00000000
  -V(xc)+E(xc)   XCENC  =        78.53031812
  PAW double counting   =     10320.96726947   -10647.99417394
  entropy T*S    EENTRO =        -0.00358834
  eigenvalues    EBANDS =       796.23849849
  atomic energy  EATOM  =     11229.46195210
  Solvation  Ediel_sol  =         0.00000000
  ---------------------------------------------------
  free energy    TOTEN  =      -112.35911366 eV

  energy without entropy =     -112.35552533  energy(sigma->0) =     -112.35731950


--------------------------------------------------------------------------------------------------------




--------------------------------------- Iteration      1(   4)  ---------------------------------------


     EDDAV:  cpu time   32.8815: real time   32.9217
       DOS:  cpu time    0.0038: real time    0.0039
    --------------------------------------------
      LOOP:  cpu time   32.8853: real time   32.9255

 eigenvalue-minimisations  : 18984
 total energy-change (2. order) :-0.3626989E+01  (-0.3561438E+01)
 number of electron     128.0000000 magnetization      24.8000000
 augmentation part      128.0000000 magnetization      24.8000000

 Free energy of the ion-electron system (eV)
  ---------------------------------------------------
  alpha Z        PSCENC =       529.06042897
  Ewald energy   TEWEN  =     -9263.07932551
  -Hartree energ DENC   =     -3155.54049303
  -exchange      EXHF   =         0.00000000
  -V(xc)+E(xc)   XCENC  =        78.53031812
  PAW double counting   =     10320.96726947   -10647.99417394
  entropy T*S    EENTRO =        -0.00379619
  eigenvalues    EBANDS =       792.61171784
  atomic energy  EATOM  =     11229.46195210
  Solvation  Ediel_sol  =         0.00000000
  ---------------------------------------------------
  free energy    TOTEN  =      -115.98610217 eV

  energy without entropy =     -115.98230598  energy(sigma->0) =     -115.98420408


--------------------------------------------------------------------------------------------------------




--------------------------------------- Iteration      1(   5)  ---------------------------------------


     EDDAV:  cpu time   33.5924: real time   33.7001
       DOS:  cpu time    0.0042: real time    0.0042
    CHARGE:  cpu time    0.7319: real time    0.7328
    MIXING:  cpu time    0.0016: real time    0.0016
    --------------------------------------------
      LOOP:  cpu time   34.3301: real time   34.4387

 eigenvalue-minimisations  : 19548
 total energy-change (2. order) :-0.1284632E+00  (-0.1283995E+00)
 number of electron     127.9999977 magnetization      21.5305827
 augmentation part       60.6424275 magnetization      13.6910839

 Broyden mixing:
  rms(total) = 0.34773E+01    rms(broyden)= 0.34772E+01
  rms(prec ) = 0.53537E+01
  weight for this iteration     100.00

 Free energy of the ion-electron system (eV)
  ---------------------------------------------------
  alpha Z        PSCENC =       529.06042897
  Ewald energy   TEWEN  =     -9263.07932551
  -Hartree energ DENC   =     -3155.54049303
  -exchange      EXHF   =         0.00000000
  -V(xc)+E(xc)   XCENC  =        78.53031812
  PAW double counting   =     10320.96726947   -10647.99417394
  entropy T*S    EENTRO =        -0.00379324
  eigenvalues    EBANDS =       792.48325168
  atomic energy  EATOM  =     11229.46195210
  Solvation  Ediel_sol  =         0.00000000
  ---------------------------------------------------
  free energy    TOTEN  =      -116.11456538 eV

  energy without entropy =     -116.11077215  energy(sigma->0) =     -116.11266876


--------------------------------------------------------------------------------------------------------




--------------------------------------- Iteration      1(   6)  ---------------------------------------


    POTLOK:  cpu time    0.0985: real time    0.0987
    SETDIJ:  cpu time    0.0358: real time    0.0358
    EDDIAG:  cpu time    3.8578: real time    3.8633
  RMM-DIIS:  cpu time   11.6110: real time   11.6321
    ORTHCH:  cpu time    0.7976: real time    0.7986
       DOS:  cpu time    0.0043: real time    0.0044
    CHARGE:  cpu time    0.7303: real time    0.7316
    MIXING:  cpu time    0.0017: real time    0.0017
    --------------------------------------------
      LOOP:  cpu time   17.1371: real time   17.1662

 eigenvalue-minimisations  : 15360
 total energy-change (2. order) : 0.2359528E+01  (-0.1330247E+02)
 number of electron     128.0000110 magnetization      21.7671185
 augmentation part       70.2300441 magnetization      16.6612562

 Broyden mixing:
  rms(total) = 0.53892E+01    rms(broyden)= 0.53889E+01
  rms(prec ) = 0.80860E+01
  weight for this iteration     100.00

 eigenvalues of (default mixing * dielectric matrix)
  average eigenvalue GAMMA=   0.1871
  0.1871

 Free energy of the ion-electron system (eV)
  ---------------------------------------------------
  alpha Z        PSCENC =       529.06042897
  Ewald energy   TEWEN  =     -9263.07932551
  -Hartree energ DENC   =     -2921.90485471
  -exchange      EXHF   =         0.00000000
  -V(xc)+E(xc)   XCENC  =        66.53035378
  PAW double counting   =     11114.00420606   -11407.30391134
  entropy T*S    EENTRO =        -0.00502409
  eigenvalues    EBANDS =       539.48113765
  atomic energy  EATOM  =     11229.46195210
  Solvation  Ediel_sol  =         0.00000000
  ---------------------------------------------------
  free energy    TOTEN  =      -113.75503709 eV

  energy without entropy =     -113.75001301  energy(sigma->0) =     -113.75252505


--------------------------------------------------------------------------------------------------------




--------------------------------------- Iteration      1(   7)  ---------------------------------------


    POTLOK:  cpu time    0.0968: real time    0.0970
    SETDIJ:  cpu time    0.0358: real time    0.0359
    EDDIAG:  cpu time    3.8746: real time    3.8820
  RMM-DIIS:  cpu time   11.7988: real time   11.8288
    ORTHCH:  cpu time    0.7999: real time    0.8011
       DOS:  cpu time    0.0042: real time    0.0042
    CHARGE:  cpu time    0.7295: real time    0.7309
    MIXING:  cpu time    0.0017: real time    0.0017
    --------------------------------------------
      LOOP:  cpu time   17.3414: real time   17.3817

 eigenvalue-minimisations  : 15360
 total energy-change (2. order) : 0.6328382E+00  (-0.2358239E+01)
 number of electron     127.9999957 magnetization      21.2929979
 augmentation part       70.4593951 magnetization      14.9132947

 Broyden mixing:
  rms(total) = 0.38834E+01    rms(broyden)= 0.38830E+01
  rms(prec ) = 0.67669E+01
  weight for this iteration     100.00

 eigenvalues of (default mixing * dielectric matrix)
  average eigenvalue GAMMA=   0.4249
  0.5808  0.2690

 Free energy of the ion-electron system (eV)
  ---------------------------------------------------
  alpha Z        PSCENC =       529.06042897
  Ewald energy   TEWEN  =     -9263.07932551
  -Hartree energ DENC   =     -2903.50626858
  -exchange      EXHF   =         0.00000000
  -V(xc)+E(xc)   XCENC  =        65.62309265
  PAW double counting   =     11329.49782337   -11624.31620013
  entropy T*S    EENTRO =        -0.00305980
  eigenvalues    EBANDS =       524.13935807
  atomic energy  EATOM  =     11229.46195210
  Solvation  Ediel_sol  =         0.00000000
  ---------------------------------------------------
  free energy    TOTEN  =      -113.12219886 eV

  energy without entropy =     -113.11913906  energy(sigma->0) =     -113.12066896


--------------------------------------------------------------------------------------------------------




--------------------------------------- Iteration      1(   8)  ---------------------------------------


    POTLOK:  cpu time    0.1036: real time    0.1044
    SETDIJ:  cpu time    0.0380: real time    0.0380
    EDDIAG:  cpu time    3.9330: real time    3.9391
  RMM-DIIS:  cpu time   11.7891: real time   11.8190
    ORTHCH:  cpu time    0.7985: real time    0.8014
       DOS:  cpu time    0.0043: real time    0.0043
    CHARGE:  cpu time    0.7325: real time    0.7332
    MIXING:  cpu time    0.0018: real time    0.0018
    --------------------------------------------
      LOOP:  cpu time   17.4007: real time   17.4412

 eigenvalue-minimisations  : 15360
 total energy-change (2. order) : 0.9474419E+01  (-0.1470323E+01)
 number of electron     128.0000018 magnetization      22.1512019
 augmentation part       67.5160949 magnetization      15.9352959

 Broyden mixing:
  rms(total) = 0.16247E+01    rms(broyden)= 0.16246E+01
  rms(prec ) = 0.25136E+01
  weight for this iteration     100.00

 eigenvalues of (default mixing * dielectric matrix)
  average eigenvalue GAMMA=   0.4659
  0.7832  0.4413  0.1731

 Free energy of the ion-electron system (eV)
  ---------------------------------------------------
  alpha Z        PSCENC =       529.06042897
  Ewald energy   TEWEN  =     -9263.07932551
  -Hartree energ DENC   =     -2970.45609295
  -exchange      EXHF   =         0.00000000
  -V(xc)+E(xc)   XCENC  =        69.25543693
  PAW double counting   =     11775.12915805   -12099.16684025
  entropy T*S    EENTRO =        -0.00442592
  eigenvalues    EBANDS =       626.15192889
  atomic energy  EATOM  =     11229.46195210
  Solvation  Ediel_sol  =         0.00000000
  ---------------------------------------------------
  free energy    TOTEN  =      -103.64777970 eV

  energy without entropy =     -103.64335378  energy(sigma->0) =     -103.64556674


--------------------------------------------------------------------------------------------------------




--------------------------------------- Iteration      1(   9)  ---------------------------------------


    POTLOK:  cpu time    0.0976: real time    0.0978
    SETDIJ:  cpu time    0.0359: real time    0.0360
    EDDIAG:  cpu time    3.8878: real time    3.9021
  RMM-DIIS:  cpu time   11.7018: real time   11.7443
    ORTHCH:  cpu time    0.8215: real time    0.8245
       DOS:  cpu time    0.0041: real time    0.0041
    CHARGE:  cpu time    0.7310: real time    0.7337
    MIXING:  cpu time    0.0019: real time    0.0019
    --------------------------------------------
      LOOP:  cpu time   17.2816: real time   17.3446

 eigenvalue-minimisations  : 15362
 total energy-change (2. order) :-0.3385251E+00  (-0.2462485E+00)
 number of electron     128.0000037 magnetization      23.3903596
 augmentation part       66.9679531 magnetization      17.0682087

 Broyden mixing:
  rms(total) = 0.14473E+01    rms(broyden)= 0.14473E+01
  rms(prec ) = 0.21820E+01
  weight for this iteration     100.00

 eigenvalues of (default mixing * dielectric matrix)
  average eigenvalue GAMMA=   0.4255
  0.8106  0.4621  0.2147  0.2147

 Free energy of the ion-electron system (eV)
  ---------------------------------------------------
  alpha Z        PSCENC =       529.06042897
  Ewald energy   TEWEN  =     -9263.07932551
  -Hartree energ DENC   =     -2973.39695182
  -exchange      EXHF   =         0.00000000
  -V(xc)+E(xc)   XCENC  =        71.49235622
  PAW double counting   =     12039.77890737   -12372.31902924
  entropy T*S    EENTRO =        -0.00343102
  eigenvalues    EBANDS =       635.01878811
  atomic energy  EATOM  =     11229.46195210
  Solvation  Ediel_sol  =         0.00000000
  ---------------------------------------------------
  free energy    TOTEN  =      -103.98630481 eV

  energy without entropy =     -103.98287379  energy(sigma->0) =     -103.98458930


--------------------------------------------------------------------------------------------------------




--------------------------------------- Iteration      1(  10)  ---------------------------------------


    POTLOK:  cpu time    0.0979: real time    0.0980
    SETDIJ:  cpu time    0.0360: real time    0.0360
    EDDIAG:  cpu time    3.9035: real time    3.9168
  RMM-DIIS:  cpu time   11.8559: real time   11.8983
    ORTHCH:  cpu time    0.7992: real time    0.8002
       DOS:  cpu time    0.0041: real time    0.0041
    CHARGE:  cpu time    0.7291: real time    0.7318
    MIXING:  cpu time    0.0020: real time    0.0020
    --------------------------------------------
      LOOP:  cpu time   17.4278: real time   17.4873

 eigenvalue-minimisations  : 15360
 total energy-change (2. order) : 0.5555584E+00  (-0.1098596E+00)
 number of electron     128.0000015 magnetization      25.5387632
 augmentation part       67.8411061 magnetization      19.1933088

 Broyden mixing:
  rms(total) = 0.55890E+00    rms(broyden)= 0.55887E+00
  rms(prec ) = 0.67798E+00
  weight for this iteration     100.00

 eigenvalues of (default mixing * dielectric matrix)
  average eigenvalue GAMMA=   0.6596
  1.3093  1.0695  0.5165  0.1844  0.2184

 Free energy of the ion-electron system (eV)
  ---------------------------------------------------
  alpha Z        PSCENC =       529.06042897
  Ewald energy   TEWEN  =     -9263.07932551
  -Hartree energ DENC   =     -2956.99341111
  -exchange      EXHF   =         0.00000000
  -V(xc)+E(xc)   XCENC  =        72.93359456
  PAW double counting   =     12237.15003172   -12570.91180302
  entropy T*S    EENTRO =        -0.00177957
  eigenvalues    EBANDS =       618.94956547
  atomic energy  EATOM  =     11229.46195210
  Solvation  Ediel_sol  =         0.00000000
  ---------------------------------------------------
  free energy    TOTEN  =      -103.43074639 eV

  energy without entropy =     -103.42896682  energy(sigma->0) =     -103.42985661


--------------------------------------------------------------------------------------------------------




--------------------------------------- Iteration      1(  11)  ---------------------------------------


    POTLOK:  cpu time    0.0979: real time    0.0980
    SETDIJ:  cpu time    0.0361: real time    0.0361
    EDDIAG:  cpu time    3.9150: real time    3.9283
  RMM-DIIS:  cpu time   11.7995: real time   11.8431
    ORTHCH:  cpu time    0.8031: real time    0.8058
       DOS:  cpu time    0.0039: real time    0.0040
    CHARGE:  cpu time    0.7289: real time    0.7329
    MIXING:  cpu time    0.0021: real time    0.0021
    --------------------------------------------
      LOOP:  cpu time   17.3866: real time   17.4502

 eigenvalue-minimisations  : 15409
 total energy-change (2. order) :-0.8210812E-01  (-0.3116805E-01)
 number of electron     128.0000024 magnetization      25.9353572
 augmentation part       67.7254931 magnetization      19.4537473

 Broyden mixing:
  rms(total) = 0.32696E+00    rms(broyden)= 0.32693E+00
  rms(prec ) = 0.35835E+00
  weight for this iteration     100.00

 eigenvalues of (default mixing * dielectric matrix)
  average eigenvalue GAMMA=   0.7242
  1.9457  0.6801  0.6801  0.6393  0.1878  0.2122

 Free energy of the ion-electron system (eV)
  ---------------------------------------------------
  alpha Z        PSCENC =       529.06042897
  Ewald energy   TEWEN  =     -9263.07932551
  -Hartree energ DENC   =     -2953.39475471
  -exchange      EXHF   =         0.00000000
  -V(xc)+E(xc)   XCENC  =        76.76269366
  PAW double counting   =     12654.86362587   -12997.31898852
  entropy T*S    EENTRO =        -0.00252665
  eigenvalues    EBANDS =       620.13404026
  atomic energy  EATOM  =     11229.46195210
  Solvation  Ediel_sol  =         0.00000000
  ---------------------------------------------------
  free energy    TOTEN  =      -103.51285451 eV

  energy without entropy =     -103.51032787  energy(sigma->0) =     -103.51159119


--------------------------------------------------------------------------------------------------------




--------------------------------------- Iteration      1(  12)  ---------------------------------------


    POTLOK:  cpu time    0.1076: real time    0.1083
    SETDIJ:  cpu time    0.0382: real time    0.0383
    EDDIAG:  cpu time    3.9645: real time    3.9692
  RMM-DIIS:  cpu time   11.8588: real time   11.8771
    ORTHCH:  cpu time    0.8021: real time    0.8029
       DOS:  cpu time    0.0041: real time    0.0044
    CHARGE:  cpu time    0.7324: real time    0.7331
    MIXING:  cpu time    0.0022: real time    0.0022
    --------------------------------------------
      LOOP:  cpu time   17.5098: real time   17.5354

 eigenvalue-minimisations  : 15390
 total energy-change (2. order) :-0.2195440E-01  (-0.5115393E-02)
 number of electron     128.0000022 magnetization      25.8742486
 augmentation part       67.7376491 magnetization      19.2950011

 Broyden mixing:
  rms(total) = 0.23645E+00    rms(broyden)= 0.23645E+00
  rms(prec ) = 0.29586E+00
  weight for this iteration     100.00

 eigenvalues of (default mixing * dielectric matrix)
  average eigenvalue GAMMA=   0.7086
  2.0093  0.7575  0.7575  0.1882  0.2101  0.5658  0.4718

 Free energy of the ion-electron system (eV)
  ---------------------------------------------------
  alpha Z        PSCENC =       529.06042897
  Ewald energy   TEWEN  =     -9263.07932551
  -Hartree energ DENC   =     -2951.43962619
  -exchange      EXHF   =         0.00000000
  -V(xc)+E(xc)   XCENC  =        76.49492291
  PAW double counting   =     12786.46687384   -13130.76089940
  entropy T*S    EENTRO =        -0.00230221
  eigenvalues    EBANDS =       620.26316659
  atomic energy  EATOM  =     11229.46195210
  Solvation  Ediel_sol  =         0.00000000
  ---------------------------------------------------
  free energy    TOTEN  =      -103.53480891 eV

  energy without entropy =     -103.53250670  energy(sigma->0) =     -103.53365781


--------------------------------------------------------------------------------------------------------




--------------------------------------- Iteration      1(  13)  ---------------------------------------


    POTLOK:  cpu time    0.0973: real time    0.0997
    SETDIJ:  cpu time    0.0360: real time    0.0361
    EDDIAG:  cpu time    3.9495: real time    3.9543
  RMM-DIIS:  cpu time   12.1716: real time   12.1896
    ORTHCH:  cpu time    0.8048: real time    0.8056
       DOS:  cpu time    0.0040: real time    0.0042
    CHARGE:  cpu time    0.7378: real time    0.7386
    MIXING:  cpu time    0.0024: real time    0.0024
    --------------------------------------------
      LOOP:  cpu time   17.8034: real time   17.8305

 eigenvalue-minimisations  : 15441
 total energy-change (2. order) : 0.1301431E-02  (-0.2548170E-02)
 number of electron     128.0000022 magnetization      25.8292691
 augmentation part       67.7557119 magnetization      19.1916339

 Broyden mixing:
  rms(total) = 0.14034E+00    rms(broyden)= 0.14034E+00
  rms(prec ) = 0.16829E+00
  weight for this iteration     100.00

 eigenvalues of (default mixing * dielectric matrix)
  average eigenvalue GAMMA=   0.7994
  2.3126  1.0512  1.0512  0.6528  0.6029  0.1879  0.2111  0.3255

 Free energy of the ion-electron system (eV)
  ---------------------------------------------------
  alpha Z        PSCENC =       529.06042897
  Ewald energy   TEWEN  =     -9263.07932551
  -Hartree energ DENC   =     -2950.29688998
  -exchange      EXHF   =         0.00000000
  -V(xc)+E(xc)   XCENC  =        76.05965108
  PAW double counting   =     12817.46851787   -13161.93736211
  entropy T*S    EENTRO =        -0.00236084
  eigenvalues    EBANDS =       619.73188093
  atomic energy  EATOM  =     11229.46195210
  Solvation  Ediel_sol  =         0.00000000
  ---------------------------------------------------
  free energy    TOTEN  =      -103.53350748 eV

  energy without entropy =     -103.53114664  energy(sigma->0) =     -103.53232706


--------------------------------------------------------------------------------------------------------




--------------------------------------- Iteration      1(  14)  ---------------------------------------


    POTLOK:  cpu time    0.0987: real time    0.0989
    SETDIJ:  cpu time    0.0362: real time    0.0362
    EDDIAG:  cpu time    3.9563: real time    3.9648
  RMM-DIIS:  cpu time   12.0547: real time   12.0717
    ORTHCH:  cpu time    0.8036: real time    0.8047
       DOS:  cpu time    0.0042: real time    0.0044
    CHARGE:  cpu time    0.7364: real time    0.7370
    MIXING:  cpu time    0.0025: real time    0.0025
    --------------------------------------------
      LOOP:  cpu time   17.6924: real time   17.7202

 eigenvalue-minimisations  : 15412
 total energy-change (2. order) : 0.2706174E-02  (-0.1487856E-02)
 number of electron     128.0000023 magnetization      25.8452014
 augmentation part       67.7655599 magnetization      19.1611540

 Broyden mixing:
  rms(total) = 0.38046E-01    rms(broyden)= 0.38046E-01
  rms(prec ) = 0.40398E-01
  weight for this iteration     100.00

 eigenvalues of (default mixing * dielectric matrix)
  average eigenvalue GAMMA=   0.8386
  2.4257  1.3960  0.8878  0.8878  0.6137  0.6137  0.1879  0.2110  0.3243

 Free energy of the ion-electron system (eV)
  ---------------------------------------------------
  alpha Z        PSCENC =       529.06042897
  Ewald energy   TEWEN  =     -9263.07932551
  -Hartree energ DENC   =     -2949.04860632
  -exchange      EXHF   =         0.00000000
  -V(xc)+E(xc)   XCENC  =        75.69392177
  PAW double counting   =     12879.90830398   -13224.93734275
  entropy T*S    EENTRO =        -0.00249451
  eigenvalues    EBANDS =       619.41236095
  atomic energy  EATOM  =     11229.46195210
  Solvation  Ediel_sol  =         0.00000000
  ---------------------------------------------------
  free energy    TOTEN  =      -103.53080131 eV

  energy without entropy =     -103.52830680  energy(sigma->0) =     -103.52955405


--------------------------------------------------------------------------------------------------------




--------------------------------------- Iteration      1(  15)  ---------------------------------------


    POTLOK:  cpu time    0.1000: real time    0.1002
    SETDIJ:  cpu time    0.0361: real time    0.0361
    EDDIAG:  cpu time    3.9628: real time    3.9703
  RMM-DIIS:  cpu time   11.9984: real time   12.0180
    ORTHCH:  cpu time    0.8028: real time    0.8041
       DOS:  cpu time    0.0042: real time    0.0044
    CHARGE:  cpu time    0.7427: real time    0.7436
    MIXING:  cpu time    0.0026: real time    0.0026
    --------------------------------------------
      LOOP:  cpu time   17.6497: real time   17.6794

 eigenvalue-minimisations  : 15420
 total energy-change (2. order) :-0.7680541E-03  (-0.1496300E-03)
 number of electron     128.0000023 magnetization      25.8523865
 augmentation part       67.7540493 magnetization      19.1711137

 Broyden mixing:
  rms(total) = 0.23463E-01    rms(broyden)= 0.23462E-01
  rms(prec ) = 0.26674E-01
  weight for this iteration     100.00

 eigenvalues of (default mixing * dielectric matrix)
  average eigenvalue GAMMA=   0.9248
  2.4515  2.1133  0.9917  0.9917  0.7884  0.5939  0.5939  0.1880  0.2109  0.3252

 Free energy of the ion-electron system (eV)
  ---------------------------------------------------
  alpha Z        PSCENC =       529.06042897
  Ewald energy   TEWEN  =     -9263.07932551
  -Hartree energ DENC   =     -2949.30118542
  -exchange      EXHF   =         0.00000000
  -V(xc)+E(xc)   XCENC  =        75.80283182
  PAW double counting   =     12889.65493222   -13234.76359747
  entropy T*S    EENTRO =        -0.00264377
  eigenvalues    EBANDS =       619.63503771
  atomic energy  EATOM  =     11229.46195210
  Solvation  Ediel_sol  =         0.00000000
  ---------------------------------------------------
  free energy    TOTEN  =      -103.53156936 eV

  energy without entropy =     -103.52892559  energy(sigma->0) =     -103.53024747


--------------------------------------------------------------------------------------------------------




--------------------------------------- Iteration      1(  16)  ---------------------------------------


    POTLOK:  cpu time    0.1036: real time    0.1100
    SETDIJ:  cpu time    0.0378: real time    0.0379
    EDDIAG:  cpu time    3.9918: real time    4.0050
  RMM-DIIS:  cpu time   12.2632: real time   12.3102
    ORTHCH:  cpu time    0.8021: real time    0.8029
       DOS:  cpu time    0.0043: real time    0.0043
    CHARGE:  cpu time    0.7412: real time    0.7440
    MIXING:  cpu time    0.0028: real time    0.0028
    --------------------------------------------
      LOOP:  cpu time   17.9466: real time   18.0171

 eigenvalue-minimisations  : 15525
 total energy-change (2. order) : 0.2073979E-04  (-0.2996192E-04)
 number of electron     128.0000023 magnetization      25.8547893
 augmentation part       67.7533097 magnetization      19.1788144

 Broyden mixing:
  rms(total) = 0.10386E-01    rms(broyden)= 0.10385E-01
  rms(prec ) = 0.12184E-01
  weight for this iteration     100.00

 eigenvalues of (default mixing * dielectric matrix)
  average eigenvalue GAMMA=   0.9249
  2.3778  2.3778  1.0157  1.0157  0.7986  0.6528  0.6528  0.5588  0.1880  0.2109
  0.3247

 Free energy of the ion-electron system (eV)
  ---------------------------------------------------
  alpha Z        PSCENC =       529.06042897
  Ewald energy   TEWEN  =     -9263.07932551
  -Hartree energ DENC   =     -2949.53823315
  -exchange      EXHF   =         0.00000000
  -V(xc)+E(xc)   XCENC  =        75.89272680
  PAW double counting   =     12886.36508785   -13231.34221243
  entropy T*S    EENTRO =        -0.00263014
  eigenvalues    EBANDS =       619.65065688
  atomic energy  EATOM  =     11229.46195210
  Solvation  Ediel_sol  =         0.00000000
  ---------------------------------------------------
  free energy    TOTEN  =      -103.53154862 eV

  energy without entropy =     -103.52891848  energy(sigma->0) =     -103.53023355


--------------------------------------------------------------------------------------------------------




--------------------------------------- Iteration      1(  17)  ---------------------------------------


    POTLOK:  cpu time    0.0985: real time    0.0986
    SETDIJ:  cpu time    0.0362: real time    0.0363
    EDDIAG:  cpu time    3.9692: real time    3.9830
  RMM-DIIS:  cpu time   10.6099: real time   10.6486
    ORTHCH:  cpu time    0.8044: real time    0.8283
       DOS:  cpu time    0.0039: real time    0.0039
    CHARGE:  cpu time    0.7383: real time    0.7390
    MIXING:  cpu time    0.0030: real time    0.0030
    --------------------------------------------
      LOOP:  cpu time   16.2635: real time   16.3407

 eigenvalue-minimisations  : 13345
 total energy-change (2. order) : 0.2045159E-04  (-0.5082518E-05)
 number of electron     128.0000023 magnetization      25.8634022
 augmentation part       67.7542021 magnetization      19.1856013

 Broyden mixing:
  rms(total) = 0.47092E-02    rms(broyden)= 0.47092E-02
  rms(prec ) = 0.59798E-02
  weight for this iteration     100.00

 eigenvalues of (default mixing * dielectric matrix)
  average eigenvalue GAMMA=   0.9751
  2.5611  2.5611  1.1002  1.1002  0.8735  0.8735  0.7148  0.5965  0.5965  0.1880
  0.2109  0.3244

 Free energy of the ion-electron system (eV)
  ---------------------------------------------------
  alpha Z        PSCENC =       529.06042897
  Ewald energy   TEWEN  =     -9263.07932551
  -Hartree energ DENC   =     -2949.58465724
  -exchange      EXHF   =         0.00000000
  -V(xc)+E(xc)   XCENC  =        75.88637874
  PAW double counting   =     12883.63094187   -13228.53840641
  entropy T*S    EENTRO =        -0.00262166
  eigenvalues    EBANDS =       619.63378096
  atomic energy  EATOM  =     11229.46195210
  Solvation  Ediel_sol  =         0.00000000
  ---------------------------------------------------
  free energy    TOTEN  =      -103.53152817 eV

  energy without entropy =     -103.52890651  energy(sigma->0) =     -103.53021734


--------------------------------------------------------------------------------------------------------




--------------------------------------- Iteration      1(  18)  ---------------------------------------


    POTLOK:  cpu time    0.0987: real time    0.1007
    SETDIJ:  cpu time    0.0360: real time    0.0361
    EDDIAG:  cpu time    3.9961: real time    4.0088
  RMM-DIIS:  cpu time    7.9357: real time    7.9612
    ORTHCH:  cpu time    0.8042: real time    0.8069
       DOS:  cpu time    0.0042: real time    0.0042
    --------------------------------------------
      LOOP:  cpu time   12.8750: real time   12.9179

[...]
     91      13.4077      0.00000
     92      13.6788      0.00000
     93      13.9373      0.00000
     94      14.1640      0.00000
     95      14.3761      0.00000
     96      14.4120      0.00000


--------------------------------------------------------------------------------------------------------


 soft charge-density along one line, spin component           1
         0         1         2         3         4         5         6         7         8         9
 total charge-density along one line

 soft charge-density along one line, spin component           2
         0         1         2         3         4         5         6         7         8         9
 total charge-density along one line

 pseudopotential strength for first ion, spin component:           1
 -1.921  -0.000  -0.019  -0.000   0.000  -2.543  -0.000  -0.018
 -0.000  -1.918  -0.000  -0.002   0.000  -0.000  -2.541  -0.000
 -0.019  -0.000  -2.019  -0.000   0.000  -0.018  -0.000  -2.638
 -0.000  -0.002  -0.000  -1.918  -0.000  -0.000  -0.002  -0.000
  0.000   0.000   0.000  -0.000  -2.022   0.000   0.000   0.000
 -2.543  -0.000  -0.018  -0.000   0.000  -3.097  -0.000  -0.017
 -0.000  -2.541  -0.000  -0.002   0.000  -0.000  -3.094  -0.000
 -0.018  -0.000  -2.638  -0.000   0.000  -0.017  -0.000  -3.187
 -0.000  -0.002  -0.000  -2.541  -0.000  -0.000  -0.002  -0.000
  0.000   0.000   0.000  -0.000  -2.640   0.000   0.000   0.000
 -0.005   0.000  -0.001   0.000   0.000  -0.004   0.000  -0.001
 -0.008   0.000  -0.002   0.000   0.000  -0.008   0.000  -0.001
  0.000  -0.007   0.000   0.002   0.000   0.000  -0.007   0.000
  0.002  -0.000  -0.012   0.000   0.000   0.002  -0.000  -0.012
 -0.000   0.002  -0.000  -0.007   0.000  -0.000   0.002  -0.000
  0.000  -0.006   0.000   0.003   0.000   0.000  -0.006   0.000
  0.003  -0.000  -0.012   0.000   0.000   0.002  -0.000  -0.011
 -0.000   0.003  -0.000  -0.006   0.000  -0.000   0.002  -0.000
 pseudopotential strength for first ion, spin component:           2
 -1.498  -0.000   0.011  -0.000   0.000  -2.141  -0.000   0.011
 -0.000  -1.499  -0.000  -0.001   0.000  -0.000  -2.142  -0.000
  0.011  -0.000  -1.400  -0.000   0.000   0.011  -0.000  -2.047
 -0.000  -0.001  -0.000  -1.499  -0.000  -0.000  -0.001  -0.000
  0.000   0.000   0.000  -0.000  -1.393   0.000   0.000   0.000
 -2.141  -0.000   0.011  -0.000   0.000  -2.714  -0.000   0.010
 -0.000  -2.142  -0.000  -0.001   0.000  -0.000  -2.715  -0.000
  0.011  -0.000  -2.047  -0.000   0.000   0.010  -0.000  -2.623
 -0.000  -0.001  -0.000  -2.142  -0.000  -0.000  -0.001  -0.000
  0.000   0.000   0.000  -0.000  -2.040   0.000   0.000   0.000
  0.001   0.000   0.001   0.000   0.000   0.001   0.000   0.001
  0.002   0.000   0.002   0.000   0.000   0.002   0.000   0.002
  0.000  -0.012   0.000  -0.001   0.000   0.000  -0.012   0.000
 -0.001  -0.000  -0.014   0.000   0.000  -0.001  -0.000  -0.014
 -0.000  -0.001  -0.000  -0.012   0.000  -0.000  -0.001  -0.000
  0.000  -0.013   0.000  -0.001   0.000   0.000  -0.013   0.000
 -0.001  -0.000  -0.015   0.000   0.000  -0.001  -0.000  -0.014
 -0.000  -0.001  -0.000  -0.013   0.000  -0.000  -0.001  -0.000
 total augmentation occupancy for first ion, spin component:           1
  2.142  -0.000   0.043  -0.000   0.000  -0.602   0.000  -0.044   0.000   0.000  -0.072   0.028   0.000   0.040  -0.000  -0.000
  0.000   2.192  -0.000   0.032  -0.000  -0.000  -0.638   0.000  -0.044   0.000   0.000   0.000   0.022   0.000   0.040  -0.014
  0.043  -0.000   2.723   0.000  -0.000  -0.044   0.000  -1.063  -0.000  -0.000  -0.045   0.005   0.000  -0.074   0.000  -0.000
 -0.000   0.032  -0.000   2.192   0.000  -0.000  -0.044   0.000  -0.638  -0.000  -0.000  -0.000   0.040  -0.000   0.022  -0.008
  0.000   0.000  -0.000  -0.000   2.812  -0.000   0.000  -0.000   0.000  -1.117  -0.000  -0.000   0.000   0.000  -0.000  -0.000
 -0.602  -0.000  -0.044  -0.000   0.000   0.864   0.000   0.030   0.000  -0.000   0.044  -0.019   0.000  -0.022  -0.000  -0.000
 -0.000  -0.638  -0.000  -0.044   0.000  -0.000   0.888   0.000   0.052   0.000   0.000   0.000   0.008   0.000  -0.022   0.002
 -0.044   0.000  -1.063   0.000  -0.000   0.030  -0.000   1.123   0.000  -0.000   0.032  -0.005   0.000   0.074   0.000   0.000
 -0.000  -0.044  -0.000  -0.638  -0.000   0.000   0.052   0.000   0.888  -0.000  -0.000  -0.000  -0.022   0.000   0.008   0.006
 -0.000   0.000  -0.000  -0.000  -1.117  -0.000  -0.000   0.000   0.000   1.145   0.000  -0.000   0.000  -0.000   0.000  -0.000
 -0.072  -0.000  -0.045   0.000   0.000   0.044  -0.000   0.032  -0.000   0.000   2.105  -0.275  -0.000   0.062   0.000  -0.000
  0.028   0.000   0.005   0.000  -0.000  -0.019   0.000  -0.005   0.000  -0.000  -0.275   0.045   0.000   0.002   0.000   0.000
 -0.000   0.022   0.000   0.040  -0.000   0.000   0.008  -0.000  -0.022  -0.000  -0.000   0.000   0.255  -0.000   0.002  -0.026
  0.040   0.000  -0.074  -0.000  -0.000  -0.022   0.000   0.074   0.000   0.000   0.062   0.002   0.000   0.261  -0.000   0.000
 -0.000   0.040   0.000   0.022   0.000   0.000  -0.022   0.000   0.008   0.000   0.000   0.000   0.002  -0.000   0.255  -0.002
  0.000  -0.014   0.000  -0.008   0.000  -0.000   0.002  -0.000   0.006  -0.000  -0.000   0.000  -0.026  -0.000  -0.002   0.003
 -0.008   0.000  -0.007   0.000  -0.000   0.006   0.000  -0.008   0.000  -0.000  -0.007  -0.000   0.000  -0.027   0.000   0.000
 -0.000  -0.008  -0.000  -0.014  -0.000   0.000   0.006  -0.000   0.002  -0.000   0.000   0.000  -0.002  -0.000  -0.026   0.000
 total augmentation occupancy for first ion, spin component:           2
  0.865   0.000   0.096  -0.000  -0.000  -0.548   0.000  -0.041  -0.000   0.000   0.024  -0.001   0.000  -0.042   0.000   0.000
  0.000   0.802   0.000  -0.122   0.000   0.000  -0.498   0.000   0.105  -0.000  -0.000   0.000  -0.054  -0.000  -0.039  -0.000
  0.096  -0.000   1.135  -0.000   0.000  -0.042   0.000  -0.538   0.000  -0.000   0.028   0.004  -0.000   0.026   0.000   0.000
 -0.000  -0.122   0.000   0.802  -0.000   0.000   0.105  -0.000  -0.498   0.000  -0.000   0.000  -0.039  -0.000  -0.054   0.001
  0.000  -0.000  -0.000  -0.000   1.169  -0.000   0.000   0.000  -0.000  -0.554  -0.000  -0.000  -0.000  -0.000  -0.000   0.000
 -0.548   0.000  -0.042   0.000  -0.000   0.290   0.000   0.009  -0.000  -0.000  -0.014   0.004  -0.000   0.028   0.000  -0.000
  0.000  -0.498   0.000   0.105  -0.000   0.000   0.252   0.000  -0.086  -0.000   0.000  -0.000   0.036  -0.000   0.026  -0.002
 -0.041  -0.000  -0.538  -0.000   0.000   0.009  -0.000   0.149  -0.000   0.000  -0.019  -0.000   0.000  -0.026  -0.000   0.000
  0.000   0.105   0.000  -0.498  -0.000   0.000  -0.086   0.000   0.252  -0.000   0.000  -0.000   0.026   0.000   0.036  -0.002
 -0.000  -0.000  -0.000  -0.000  -0.554  -0.000  -0.000  -0.000  -0.000   0.154   0.000   0.000  -0.000  -0.000  -0.000  -0.000
  0.024   0.000   0.028   0.000  -0.000  -0.014   0.000  -0.019  -0.000   0.000  -0.128   0.022   0.000  -0.005  -0.000   0.000
 -0.001  -0.000   0.004  -0.000  -0.000   0.004  -0.000  -0.000   0.000   0.000   0.022  -0.004   0.000  -0.002   0.000   0.000
  0.000  -0.054   0.000  -0.039   0.000  -0.000   0.036   0.000   0.026  -0.000  -0.000  -0.000  -0.006  -0.000  -0.005   0.000
 -0.042  -0.000   0.026  -0.000   0.000   0.028   0.000  -0.026   0.000  -0.000  -0.005  -0.002  -0.000  -0.012   0.000   0.000
  0.000  -0.039   0.000  -0.054   0.000  -0.000   0.026  -0.000   0.036   0.000   0.000   0.000  -0.005  -0.000  -0.006   0.001
 -0.000  -0.000   0.000   0.001  -0.000   0.000  -0.002  -0.000  -0.002  -0.000   0.000  -0.000   0.000  -0.000   0.001   0.000
  0.001   0.000  -0.005   0.000  -0.000  -0.002   0.000   0.004   0.000   0.000  -0.001   0.000   0.000   0.001   0.000   0.000
 -0.000   0.001   0.000  -0.000   0.000   0.000  -0.002   0.000  -0.002   0.000   0.000  -0.000   0.001   0.000   0.000  -0.000


------------------------ aborting loop because EDIFF is reached ----------------------------------------





 total charge     

# of ion       s       p       d       tot
------------------------------------------
    1        0.473   0.428   8.357   9.258
    2        0.472   0.426   8.367   9.265
    3        0.472   0.426   8.367   9.265
    4        0.473   0.428   8.357   9.258
    5        0.473   0.428   8.357   9.258
    6        0.472   0.426   8.367   9.265
    7        0.472   0.426   8.367   9.265
    8        0.473   0.428   8.357   9.258
    9        0.308   0.289   4.939   5.535
   10        0.308   0.289   4.939   5.535
   11        0.337   0.335   4.984   5.656
   12        0.343   0.335   4.946   5.625
   13        0.337   0.335   4.984   5.656
   14        0.343   0.335   4.946   5.625
   15        1.240   1.721   0.300   3.262
   16        1.240   1.721   0.300   3.262
--------------------------------------------------
tot          8.234   8.776  97.236 114.247



 magnetization (x)

# of ion       s       p       d       tot
------------------------------------------
    1       -0.024  -0.015   0.580   0.541
    2       -0.024  -0.016   0.561   0.521
    3       -0.024  -0.016   0.561   0.521
    4       -0.024  -0.015   0.580   0.541
    5       -0.024  -0.015   0.580   0.541
    6       -0.024  -0.016   0.561   0.521
    7       -0.024  -0.016   0.561   0.521
    8       -0.024  -0.015   0.580   0.541
    9        0.029   0.021   3.610   3.660
   10        0.029   0.021   3.610   3.660
   11        0.023   0.004   3.362   3.389
   12        0.018   0.010   3.497   3.526
   13        0.023   0.004   3.362   3.389
   14        0.018   0.010   3.497   3.526
   15       -0.014  -0.099  -0.008  -0.121
   16       -0.014  -0.099  -0.008  -0.121
--------------------------------------------------
tot         -0.081  -0.249  25.487  25.158

    CHARGE:  cpu time    0.7518: real time    0.7547
    FORLOC:  cpu time    0.0072: real time    0.0073
    FORNL :  cpu time    5.4806: real time    5.4993
    STRESS:  cpu time   16.4356: real time   16.4839
    FORCOR:  cpu time    0.1003: real time    0.1003
    FORHAR:  cpu time    0.0160: real time    0.0160
    MIXING:  cpu time    0.0032: real time    0.0032
    OFIELD:  cpu time    0.0000: real time    0.0000

  FORCE on cell =-STRESS in cart. coord.  units (eV):
  Direction    XX          YY          ZZ          XY          YZ          ZX
  --------------------------------------------------------------------------------------
  Alpha Z   529.06043   529.06043   529.06043
  Ewald   -2960.28212 -2960.28212 -3342.54358     0.00000     0.00000     0.00000
  Hartree  1102.10035  1102.10035   745.35069    -0.00000    -0.00000    -0.00000
  E(xc)    -670.86935  -670.86935  -670.89386     0.00000     0.00000     0.00000
  Local    -496.10934  -496.10934   245.97104     0.00000    -0.00000    -0.00000
  n-local  -150.51914  -145.13676  -148.25948    -0.21422    -1.16341     0.39486
  augment  1580.26180  1580.26180  1579.01392    -0.00000     0.00000    -0.00000
  Kinetic  1051.38287  1072.80541  1061.53563    -0.24443    -1.65214     0.71631
  Fock        0.00000     0.00000     0.00000     0.00000     0.00000     0.00000
  -------------------------------------------------------------------------------------
  Total      -1.57203    -1.57203    -0.76521     0.00000    -0.00000     0.00000
  in kB     -11.84213   -11.84213    -5.76432     0.00000    -0.00000     0.00000
  external pressure =       -9.82 kB  Pullay stress =        0.00 kB


 VOLUME and BASIS-vectors are now :
 -----------------------------------------------------------------------------
  energy-cutoff  :      550.00
  volume of cell :      212.69
      direct lattice vectors                 reciprocal lattice vectors
     5.969171074  0.000000000  0.000000000     0.167527449  0.000000000  0.000000000
     0.000000000  5.969171074  0.000000000     0.000000000  0.167527449  0.000000000
     0.000000000  0.000000000  5.969171074     0.000000000  0.000000000  0.167527449

  length of vectors
     5.969171074  5.969171074  5.969171074     0.167527449  0.167527449  0.167527449


 FORCES acting on ions
    electron-ion (+dipol)            ewald-force                    non-local-force                 convergence-correction
 -----------------------------------------------------------------------------------------------
   0.604E-12 0.590E-12 0.182E+03   -.711E-14 -.107E-13 -.179E+03   -.520E-17 -.781E-17 -.280E+01   0.108E-12 -.490E-14 0.554E-02
   0.164E-11 -.360E-11 0.182E+03   -.213E-13 -.107E-13 -.179E+03   0.347E-17 0.564E-17 -.280E+01   -.351E-13 -.326E-13 0.554E-02
   0.352E-12 0.328E-11 0.182E+03   -.711E-14 -.107E-13 -.179E+03   0.104E-16 -.434E-18 -.280E+01   0.880E-13 0.708E-13 0.554E-02
   0.197E-11 0.578E-11 0.182E+03   -.711E-14 -.107E-13 -.179E+03   -.520E-17 -.781E-17 -.280E+01   -.358E-13 0.106E-12 0.554E-02
   0.749E-12 0.721E-12 -.182E+03   0.213E-13 0.000E+00 0.179E+03   0.434E-17 0.347E-17 0.280E+01   0.646E-13 0.286E-13 -.554E-02
   0.137E-11 0.359E-11 -.182E+03   0.213E-13 0.000E+00 0.179E+03   -.694E-17 -.564E-17 0.280E+01   -.837E-16 0.651E-14 -.554E-02
   0.392E-12 0.380E-11 -.182E+03   0.213E-13 0.000E+00 0.179E+03   -.694E-17 -.217E-17 0.280E+01   0.937E-13 0.146E-13 -.554E-02
   0.194E-11 0.513E-11 -.182E+03   0.213E-13 0.000E+00 0.179E+03   0.434E-17 0.347E-17 0.280E+01   -.356E-13 0.440E-13 -.554E-02
   0.231E-12 0.865E-14 -.628E-12   0.460E-14 0.292E-13 -.267E-14   -.165E-22 0.000E+00 0.000E+00   -.727E-13 0.281E-13 0.572E-13
   -.213E-13 0.203E-12 -.656E-13   0.508E-15 0.311E-13 0.257E-13   0.000E+00 0.000E+00 0.000E+00   0.540E-13 -.345E-13 0.266E-13
   -.338E-13 -.430E-13 0.222E-12   -.569E-14 0.105E-14 0.578E-13   0.529E-22 -.662E-22 0.000E+00   0.645E-13 0.302E-13 -.359E-13
   0.215E-12 -.351E-13 0.165E-11   0.401E-14 0.240E-14 0.605E-13   0.106E-21 -.397E-22 0.265E-22   -.656E-13 0.481E-13 -.724E-13
   0.212E-12 0.178E-12 0.996E-12   -.396E-14 -.385E-14 0.578E-13   0.132E-22 0.000E+00 0.000E+00   -.883E-13 -.272E-13 -.468E-13
   -.336E-13 0.196E-12 0.220E-12   -.553E-16 -.254E-14 0.605E-13   0.000E+00 0.529E-22 0.265E-22   0.835E-13 -.295E-13 -.184E-13
   -.122E-13 -.175E-13 -.130E-13   -.286E-13 -.800E-14 0.177E-14   -.331E-23 0.662E-23 0.000E+00   0.190E-13 0.987E-14 0.159E-13
   -.741E-14 -.495E-12 0.190E-14   -.274E-13 -.659E-14 0.887E-14   -.662E-23 0.662E-23 0.000E+00   -.201E-13 -.872E-14 0.136E-13
 -----------------------------------------------------------------------------------------------
   0.956E-11 0.193E-10 0.106E-10   -.140E-13 0.206E-15 0.997E-13   -.173E-17 -.113E-16 -.888E-15   0.222E-12 0.249E-12 -.443E-12


 POSITION                                       TOTAL-FORCE (eV/Angst)
 -----------------------------------------------------------------------------------
      1.49229      1.49229      1.60815         0.000000      0.000000     -0.002592
      4.47688      1.49229      1.60815         0.000000     -0.000000     -0.002592
      1.49229      4.47688      1.60815        -0.000000     -0.000000     -0.002592
      4.47688      4.47688      1.60815         0.000000     -0.000000     -0.002592
      1.49229      1.49229      4.36102        -0.000000     -0.000000      0.002592
      4.47688      1.49229      4.36102        -0.000000      0.000000      0.002592
      1.49229      4.47688      4.36102         0.000000      0.000000      0.002592
      4.47688      4.47688      4.36102         0.000000     -0.000000      0.002592
      2.98459      0.00000      0.00000        -0.000000      0.000000      0.000000
      0.00000      2.98459      0.00000        -0.000000      0.000000      0.000000
      0.00000      0.00000      2.98459        -0.000000      0.000000      0.000000
      2.98459      0.00000      2.98459        -0.000000      0.000000      0.000000
      2.98459      2.98459      2.98459        -0.000000      0.000000      0.000000
      0.00000      2.98459      2.98459        -0.000000      0.000000      0.000000
      0.00000      0.00000      0.00000        -0.000000      0.000000      0.000000
      2.98459      2.98459      0.00000        -0.000000      0.000000      0.000000
 -----------------------------------------------------------------------------------
    total drift:                                0.000000      0.000000      0.000000


--------------------------------------------------------------------------------------------------------



  FREE ENERGIE OF THE ION-ELECTRON SYSTEM (eV)
  ---------------------------------------------------
  free  energy   TOTEN  =      -103.53152928 eV

  energy  without entropy=     -103.52891533  energy(sigma->0) =     -103.53022231



--------------------------------------------------------------------------------------------------------


    POTLOK:  cpu time    0.1345: real time    0.1346


--------------------------------------------------------------------------------------------------------




--------------------------------------------------------------------------------------------------------


  
 reached required accuracy - stopping structural energy minimisation
     LOOP+:  cpu time  398.4029: real time  399.4051
    4ORBIT:  cpu time    0.0000: real time    0.0000



 total charge     

# of ion       s       p       d       tot
------------------------------------------
    1        0.473   0.428   8.357   9.258
    2        0.472   0.426   8.367   9.265
    3        0.472   0.426   8.367   9.265
    4        0.473   0.428   8.357   9.258
    5        0.473   0.428   8.357   9.258
    6        0.472   0.426   8.367   9.265
    7        0.472   0.426   8.367   9.265
    8        0.473   0.428   8.357   9.258
    9        0.308   0.289   4.939   5.535
   10        0.308   0.289   4.939   5.535
   11        0.337   0.335   4.984   5.656
   12        0.343   0.335   4.946   5.625
   13        0.337   0.335   4.984   5.656
   14        0.343   0.335   4.946   5.625
   15        1.240   1.721   0.300   3.262
   16        1.240   1.721   0.300   3.262
--------------------------------------------------
tot          8.234   8.776  97.236 114.247



 magnetization (x)

# of ion       s       p       d       tot
------------------------------------------
    1       -0.024  -0.015   0.580   0.541
    2       -0.024  -0.016   0.561   0.521
    3       -0.024  -0.016   0.561   0.521
    4       -0.024  -0.015   0.580   0.541
    5       -0.024  -0.015   0.580   0.541
    6       -0.024  -0.016   0.561   0.521
    7       -0.024  -0.016   0.561   0.521
    8       -0.024  -0.015   0.580   0.541
    9        0.029   0.021   3.610   3.660
   10        0.029   0.021   3.610   3.660
   11        0.023   0.004   3.362   3.389
   12        0.018   0.010   3.497   3.526
   13        0.023   0.004   3.362   3.389
   14        0.018   0.010   3.497   3.526
   15       -0.014  -0.099  -0.008  -0.121
   16       -0.014  -0.099  -0.008  -0.121
--------------------------------------------------
tot         -0.081  -0.249  25.487  25.158


 total amount of memory used by VASP MPI-rank0   112078. kBytes
=======================================================================

   base      :      30000. kBytes
   nonlr-proj:       6770. kBytes
   fftplans  :       1269. kBytes
   grid      :       6573. kBytes
   one-center:        497. kBytes
   wavefun   :      66969. kBytes

  
  
 General timing and accounting informations for this job:
 ========================================================
  
                  Total CPU time used (sec):      410.069
                            User time (sec):      387.727
                          System time (sec):       22.342
                         Elapsed time (sec):      412.255
  
                   Maximum memory used (kb):      144928.
                   Average memory used (kb):           0.
  
                          Minor page faults:     10144053
                          Major page faults:           18
                 Voluntary context switches:         2109
