 vasp.5.4.4.18Apr17-6-g9f103f2a35 (build May 21 2018 20:56:50) complex           
 executed on             LinuxGNU date 2021.10.15  15:43:20
 running on   12 total cores
 distrk:  each k-point on   12 cores,    1 groups
 distr:  one band on NCORES_PER_BAND=   1 cores,   12 groups


--------------------------------------------------------------------------------------------------------


 INCAR:
 POTCAR:    PAW_PBE Ni 02Aug2007                  
 POTCAR:    PAW_PBE Mn 06Sep2000                  
 POTCAR:    PAW_PBE In 08Apr2002                  

 ----------------------------------------------------------------------------- 
|                                                                             |
|           W    W    AA    RRRRR   N    N  II  N    N   GGGG   !!!           |
|           W    W   A  A   R    R  NN   N  II  NN   N  G    G  !!!           |
|           W    W  A    A  R    R  N N  N  II  N N  N  G       !!!           |
|           W WW W  AAAAAA  RRRRR   N  N N  II  N  N N  G  GGG   !            |
|           WW  WW  A    A  R   R   N   NN  II  N   NN  G    G                |
|           W    W  A    A  R    R  N    N  II  N    N   GGGG   !!!           |
|                                                                             |
|      For optimal performance we recommend to set                            |
|        NCORE= 4 - approx SQRT( number of cores)                             |
|      NCORE specifies how many cores store one orbital (NPAR=cpu/NCORE).     |
|      This setting can  greatly improve the performance of VASP for DFT.     |
|      The default,   NCORE=1            might be grossly inefficient         |
|      on modern multi-core architectures or massively parallel machines.     |
|      Do your own testing !!!!                                               |
|      Unfortunately you need to use the default for GW and RPA calculations. |
|      (for HF NCORE is supported but not extensively tested yet)             |
|                                                                             |
 ----------------------------------------------------------------------------- 

 POTCAR:    PAW_PBE Ni 02Aug2007                  
   VRHFIN =Ni:                                                                  
   LEXCH  = PE                                                                  
   EATOM  =  1077.6739 eV,   79.2068 Ry                                         
                                                                                
   TITEL  = PAW_PBE Ni 02Aug2007                                                
   LULTRA =        F    use ultrasoft PP ?                                      
   IUNSCR =        1    unscreen: 0-lin 1-nonlin 2-no                           
   RPACOR =    2.000    partial core radius                                     
   POMASS =   58.690; ZVAL   =   10.000    mass and valenz                      
   RCORE  =    2.300    outmost cutoff radius                                   
   RWIGS  =    2.430; RWIGS  =    1.286    wigner-seitz radius (au A)           
   ENMAX  =  269.532; ENMIN  =  202.149 eV                                      
   RCLOC  =    1.201    cutoff for local pot                                    
   LCOR   =        T    correct aug charges                                     
   LPAW   =        T    paw PP                                                  
   EAUG   =  544.565                                                            
   DEXC   =    0.000                                                            
   RMAX   =    2.357    core radius for proj-oper                               
   RAUG   =    1.300    factor for augmentation sphere                          
   RDEP   =    2.390    radius for radial grids                                 
   RDEPT  =    1.838    core radius for aug-charge                              
                                                                                
   Atomic configuration                                                         
    9 entries                                                                   
     n  l   j            E        occ.                                          
     1  0  0.50     -8206.4253   2.0000                                         
     2  0  0.50      -976.1748   2.0000                                         
     2  1  1.50      -839.0571   6.0000                                         
     3  0  0.50      -105.9991   2.0000                                         
     3  1  1.50       -66.4603   6.0000                                         
     3  2  2.50        -4.6458   9.0000                                         
     4  0  0.50        -4.4926   1.0000                                         
     4  1  1.50        -4.0817   0.0000                                         
     4  3  2.50        -1.3606   0.0000                                         
   Description                                                                  
     l       E           TYP  RCUT    TYP  RCUT                                 
     2     -4.6457903     23  2.300                                             
     2     -6.0063729     23  2.300                                             
     0     -4.4925590     23  2.300                                             
     0      5.0102601     23  2.300                                             
     1     -2.7211652     23  2.300                                             
     1     16.5183231     23  2.300                                             
  local pseudopotential read in
  partial core-charges read in
  partial kinetic energy density read in
  atomic valenz-charges read in
  non local Contribution for L=           2  read in
    real space projection operators read in
  non local Contribution for L=           2  read in
    real space projection operators read in
  non local Contribution for L=           0  read in
    real space projection operators read in
  non local Contribution for L=           0  read in
    real space projection operators read in
  non local Contribution for L=           1  read in
    real space projection operators read in
  non local Contribution for L=           1  read in
    real space projection operators read in
    PAW grid and wavefunctions read in

   number of l-projection  operators is LMAX  =           6
   number of lm-projection operators is LMMAX =          18

 POTCAR:    PAW_PBE Mn 06Sep2000                  
   VRHFIN =Mn: d6 s1                                                            
   LEXCH  = PE                                                                  
   EATOM  =   416.7541 eV,   30.6306 Ry                                         
                                                                                
   TITEL  = PAW_PBE Mn 06Sep2000                                                
   LULTRA =        F    use ultrasoft PP ?                                      
   IUNSCR =        1    unscreen: 0-lin 1-nonlin 2-no                           
   RPACOR =    2.000    partial core radius                                     
   POMASS =   54.938; ZVAL   =    7.000    mass and valenz                      
   RCORE  =    2.300    outmost cutoff radius                                   
   RWIGS  =    2.500; RWIGS  =    1.323    wigner-seitz radius (au A)           
   ENMAX  =  269.864; ENMIN  =  202.398 eV                                      
   RCLOC  =    1.725    cutoff for local pot                                    
   LCOR   =        T    correct aug charges                                     
   LPAW   =        T    paw PP                                                  
   EAUG   =  500.711                                                            
   DEXC   =    0.000                                                            
   RMAX   =    2.343    core radius for proj-oper                               
   RAUG   =    1.300    factor for augmentation sphere                          
   RDEP   =    2.338    radius for radial grids                                 
   RDEPT  =    1.911    core radius for aug-charge                              
                                                                                
   Atomic configuration                                                         
    9 entries                                                                   
     n  l   j            E        occ.                                          
     1  0  0.50     -6424.8288   2.0000                                         
     2  0  0.50      -739.1154   2.0000                                         
     2  1  1.50      -625.3949   6.0000                                         
     3  0  0.50       -81.6100   2.0000                                         
     3  1  1.50       -50.4667   6.0000                                         
     3  2  2.50        -3.3745   6.0000                                         
     4  0  0.50        -4.1331   1.0000                                         
     4  1  0.50        -4.0817   0.0000                                         
     4  3  2.50        -1.3606   0.0000                                         
   Description                                                                  
     l       E           TYP  RCUT    TYP  RCUT                                 
     2     -3.3744664     23  2.300                                             
     2     -4.7350490     23  2.300                                             
     0     -4.1331408     23  2.300                                             
     0      7.6656614     23  2.300                                             
     1     -2.7211652     23  2.300                                             
     1     20.4087390     23  2.300                                             
  local pseudopotential read in
  partial core-charges read in
  partial kinetic energy density read in
  atomic valenz-charges read in
  non local Contribution for L=           2  read in
    real space projection operators read in
  non local Contribution for L=           2  read in
    real space projection operators read in
  non local Contribution for L=           0  read in
    real space projection operators read in
  non local Contribution for L=           0  read in
    real space projection operators read in
  non local Contribution for L=           1  read in
    real space projection operators read in
  non local Contribution for L=           1  read in
    real space projection operators read in
    PAW grid and wavefunctions read in

   number of l-projection  operators is LMAX  =           6
   number of lm-projection operators is LMMAX =          18

 POTCAR:    PAW_PBE In 08Apr2002                  
   VRHFIN =In: s2p1                                                             
   LEXCH  = PE                                                                  
   EATOM  =    53.7908 eV,    3.9535 Ry                                         
                                                                                
   TITEL  = PAW_PBE In 08Apr2002                                                
   LULTRA =        F    use ultrasoft PP ?                                      
   IUNSCR =        1    unscreen: 0-lin 1-nonlin 2-no                           
   RPACOR =    2.400    partial core radius                                     
   POMASS =  114.820; ZVAL   =    3.000    mass and valenz                      
   RCORE  =    3.100    outmost cutoff radius                                   
   RWIGS  =    3.170; RWIGS  =    1.677    wigner-seitz radius (au A)           
   ENMAX  =   95.934; ENMIN  =   71.951 eV                                      
   ICORE  =        3    local potential                                         
   LCOR   =        T    correct aug charges                                     
   LPAW   =        T    paw PP                                                  
   EAUG   =  237.125                                                            
   DEXC   =    0.000                                                            
   RMAX   =    3.168    core radius for proj-oper                               
   RAUG   =    1.300    factor for augmentation sphere                          
   RDEP   =    3.187    radius for radial grids                                 
   RDEPT  =    2.711    core radius for aug-charge                              
                                                                                
   Atomic configuration                                                         
   13 entries                                                                   
     n  l   j            E        occ.                                          
     1  0  0.50    -27747.9169   2.0000                                         
     2  0  0.50     -4154.4438   2.0000                                         
     2  1  1.50     -3728.4305   6.0000                                         
     3  0  0.50      -788.3680   2.0000                                         
     3  1  1.50      -648.9215   6.0000                                         
     3  2  2.50      -432.5893  10.0000                                         
     4  0  0.50      -119.6363   2.0000                                         
     4  1  1.50       -78.1086   6.0000                                         
     4  2  2.50       -18.6227  10.0000                                         
     5  0  0.50        -8.2107   2.0000                                         
     5  1  0.50        -2.5185   1.0000                                         
     5  2  2.50        -1.3606   0.0000                                         
     4  3  2.50        -2.7212   0.0000                                         
   Description                                                                  
     l       E           TYP  RCUT    TYP  RCUT                                 
     0     -8.2107306     23  3.100                                             
     0     -6.1485975     23  3.100                                             
     1     -2.5184867     23  3.100                                             
     1      3.2427302     23  3.100                                             
     2     -1.3605826     23  3.100                                             
     3     -1.3605826     23  3.100                                             
  local pseudopotential read in
  partial core-charges read in
  partial kinetic energy density read in
  atomic valenz-charges read in
  non local Contribution for L=           0  read in
    real space projection operators read in
  non local Contribution for L=           0  read in
    real space projection operators read in
  non local Contribution for L=           1  read in
    real space projection operators read in
  non local Contribution for L=           1  read in
    real space projection operators read in
  non local Contribution for L=           2  read in
    real space projection operators read in
    PAW grid and wavefunctions read in

   number of l-projection  operators is LMAX  =           5
   number of lm-projection operators is LMMAX =          13

 Optimization of the real space projectors (new method)

 maximal supplied QI-value         = 16.25
 optimisation between [QCUT,QGAM] = [ 11.86, 23.89] = [ 39.41,159.82] Ry 
 Optimized for a Real-space Cutoff    1.33 Angstroem

   l    n(q)    QCUT    max X(q) W(low)/X(q) W(high)/X(q)  e(spline) 
   2      9    11.864    60.317    0.21E-03    0.51E-03    0.25E-06
   2      9    11.864    55.921    0.21E-03    0.51E-03    0.26E-06
   0      9    11.864    51.690    0.22E-03    0.30E-04    0.17E-06
   0      9    11.864    30.015    0.20E-03    0.28E-04    0.15E-06
   1      9    11.864    18.849    0.76E-04    0.33E-03    0.17E-06
   1      9    11.864    14.624    0.60E-04    0.28E-03    0.15E-06
 Optimization of the real space projectors (new method)

 maximal supplied QI-value         = 16.25
 optimisation between [QCUT,QGAM] = [ 11.86, 23.89] = [ 39.41,159.82] Ry 
 Optimized for a Real-space Cutoff    1.36 Angstroem

   l    n(q)    QCUT    max X(q) W(low)/X(q) W(high)/X(q)  e(spline) 
   2      9    11.864   110.144    0.49E-03    0.50E-03    0.21E-06
   2      9    11.864   103.200    0.49E-03    0.51E-03    0.22E-06
   0     10    11.864    68.437    0.12E-03    0.41E-04    0.21E-06
   0     10    11.864    33.971    0.11E-03    0.36E-04    0.19E-06
   1      9    11.864    17.065    0.24E-03    0.26E-03    0.93E-07
   1      9    11.864    12.540    0.19E-03    0.20E-03    0.80E-07
 Optimization of the real space projectors (new method)

 maximal supplied QI-value         = 12.09
 optimisation between [QCUT,QGAM] = [ 11.97, 23.95] = [ 40.14,160.58] Ry 
 Optimized for a Real-space Cutoff    1.63 Angstroem

   l    n(q)    QCUT    max X(q) W(low)/X(q) W(high)/X(q)  e(spline) 
   0     12    11.973   106.980    0.33E-03    0.16E-03    0.25E-05
   0     12    11.973    81.086    0.37E-03    0.18E-03    0.28E-05
   1     11    11.973    53.097    0.22E-03    0.42E-03    0.40E-05
   1     11    11.973    32.621    0.20E-03    0.40E-03    0.37E-05
   2     11    11.973     8.820    0.30E-03    0.17E-03    0.41E-06
  PAW_PBE Ni 02Aug2007                  :
 energy of atom  1       EATOM=-1077.6739
 kinetic energy error for atom=    0.0027 (will be added to EATOM!!)
  PAW_PBE Mn 06Sep2000                  :
 energy of atom  2       EATOM= -416.7541
 kinetic energy error for atom=    0.0022 (will be added to EATOM!!)
  PAW_PBE In 08Apr2002                  :
 energy of atom  3       EATOM=  -53.7908
 kinetic energy error for atom=    0.0000 (will be added to EATOM!!)


 POSCAR: Ni2MnIn                                 
  positions in direct lattice
  velocities in cartesian coordinates
 exchange correlation table for  LEXCH =        8
   RHO(1)=    0.500       N(1)  =     2000
   RHO(2)=  100.500       N(2)  =     4000



--------------------------------------------------------------------------------------------------------


 ion  position               nearest neighbor table
   1  0.249  0.251  0.268-  14 2.51  13 2.52  11 2.52  12 2.52  10 2.64  15 2.64  16 2.64   9 2.65
                             5 2.76   3 2.97   2 2.97   2 2.99   3 2.99
   2  0.751  0.251  0.268-  14 2.51  13 2.52  11 2.52  12 2.52  10 2.64  15 2.64  16 2.64   9 2.65
                             6 2.76   4 2.97   1 2.97   4 2.99   1 2.99
   3  0.249  0.749  0.268-  14 2.51  13 2.52  11 2.52  12 2.52  10 2.64  15 2.64  16 2.64   9 2.65
                             7 2.76   4 2.97   1 2.97   1 2.99   4 2.99
   4  0.751  0.749  0.268-  14 2.51  13 2.52  11 2.52  12 2.52  10 2.64  15 2.64  16 2.64   9 2.65
                             8 2.76   3 2.97   2 2.97   2 2.99   3 2.99
   5  0.249  0.251  0.732-  14 2.51  13 2.52  11 2.52  12 2.52  10 2.64  15 2.64  16 2.64   9 2.65
                             1 2.76   6 2.97   7 2.97   6 2.99   7 2.99
   6  0.751  0.251  0.732-  14 2.51  13 2.52  11 2.52  12 2.52  10 2.64  15 2.64  16 2.64   9 2.65
                             2 2.76   5 2.97   8 2.97   8 2.99   5 2.99
   7  0.249  0.749  0.732-  14 2.51  13 2.52  11 2.52  12 2.52  10 2.64  15 2.64  16 2.64   9 2.65
                             3 2.76   5 2.97   8 2.97   5 2.99   8 2.99
   8  0.751  0.749  0.732-  14 2.51  13 2.52  11 2.52  12 2.52  10 2.64  15 2.64  16 2.64   9 2.65
                             4 2.76   6 2.97   7 2.97   6 2.99   7 2.99
   9  0.500  0.000  0.000-   1 2.65   2 2.65   3 2.65   4 2.65   5 2.65   6 2.65   7 2.65   8 2.65
                            12 2.98  15 2.98  16 2.98  12 2.98  16 2.98  15 2.98
  10  0.000  0.500  0.000-   1 2.64   2 2.64   3 2.64   4 2.64   5 2.64   6 2.64   7 2.64   8 2.64
                            14 2.98  15 2.98  16 2.98  14 2.98  15 2.98  16 2.98
  11  0.000  0.000  0.500-   1 2.52   2 2.52   3 2.52   4 2.52   5 2.52   6 2.52   7 2.52   8 2.52
                            12 2.98  14 2.98  15 2.98  15 2.98  14 2.98  12 2.98
  12  0.500  0.000  0.500-   1 2.52   2 2.52   3 2.52   4 2.52   5 2.52   6 2.52   7 2.52   8 2.52
                             9 2.98  11 2.98  13 2.98   9 2.98  13 2.98  11 2.98
  13  0.500  0.500  0.500-   1 2.52   2 2.52   3 2.52   4 2.52   5 2.52   6 2.52   7 2.52   8 2.52
                            12 2.98  14 2.98  16 2.98  16 2.98  12 2.98  14 2.98
  14  0.000  0.500  0.500-   1 2.51   2 2.51   3 2.51   4 2.51   5 2.51   6 2.51   7 2.51   8 2.51
                            10 2.98  11 2.98  13 2.98  10 2.98  11 2.98  13 2.98
  15  0.000  0.000  0.000-   1 2.64   2 2.64   3 2.64   4 2.64   5 2.64   6 2.64   7 2.64   8 2.64
                             9 2.98  10 2.98  11 2.98  11 2.98  10 2.98   9 2.98
  16  0.500  0.500  0.000-   1 2.64   2 2.64   3 2.64   4 2.64   5 2.64   6 2.64   7 2.64   8 2.64
                             9 2.98  10 2.98  13 2.98  13 2.98   9 2.98  10 2.98

  LATTYP: Found a simple cubic cell.
 ALAT       =     5.9544831912
  
  Lattice vectors:
  
 A1 = (   5.9544831912,   0.0000000000,   0.0000000000)
 A2 = (   0.0000000000,   5.9544831912,   0.0000000000)
 A3 = (   0.0000000000,   0.0000000000,   5.9544831912)


Analysis of symmetry for initial positions (statically):
=====================================================================
 Subroutine PRICEL returns:
 Original cell was already a primitive cell.
 

 Routine SETGRP: Setting up the symmetry group for a 
 simple cubic supercell.


 Subroutine GETGRP returns: Found 16 space group operations
 (whereof  8 operations were pure point group operations)
 out of a pool of 48 trial point group operations.


The static configuration has the point symmetry D_2h.
 The point group associated with its full space group is D_4h.


Analysis of symmetry for dynamics (positions and initial velocities):
=====================================================================
 Subroutine PRICEL returns:
 Original cell was already a primitive cell.
 

 Routine SETGRP: Setting up the symmetry group for a 
 simple cubic supercell.


 Subroutine GETGRP returns: Found 16 space group operations
 (whereof  8 operations were pure point group operations)
 out of a pool of 48 trial point group operations.


The dynamic configuration has the point symmetry D_2h.
 The point group associated with its full space group is D_4h.


Analysis of structural, dynamic, and magnetic symmetry:
=====================================================================
 Subroutine PRICEL returns:
 Original cell was already a primitive cell.
 

 Routine SETGRP: Setting up the symmetry group for a 
 simple cubic supercell.


 Subroutine GETGRP returns: Found 16 space group operations
 (whereof  8 operations were pure point group operations)
 out of a pool of 48 trial point group operations.


The magnetic configuration has the point symmetry D_2h.
 The point group associated with its full space group is D_4h.


 Subroutine INISYM returns: Found 16 space group operations
 (whereof  8 operations are pure point group operations),
 and found     1 'primitive' translations



 KPOINTS: k-points                                

Automatic generation of k-mesh.
Space group operators:
 irot       det(A)        alpha          n_x          n_y          n_z        tau_x        tau_y        tau_z
    1     1.000000     0.000000     1.000000     0.000000     0.000000     0.000000     0.000000     0.000000
    2    -1.000000     0.000000     1.000000     0.000000     0.000000     0.000000     0.000000     0.000000
    3     1.000000   180.000000     0.000000     0.000000     1.000000     0.000000     0.000000     0.000000
    4    -1.000000   180.000000     0.000000     0.000000     1.000000     0.000000     0.000000     0.000000
    5     1.000000   180.000000     1.000000     0.000000     0.000000     0.000000     0.000000     0.000000
    6    -1.000000   180.000000     1.000000     0.000000     0.000000     0.000000     0.000000     0.000000
    7     1.000000   180.000000     0.000000     1.000000     0.000000     0.000000     0.000000     0.000000
    8    -1.000000   180.000000     0.000000     1.000000     0.000000     0.000000     0.000000     0.000000
    9     1.000000    90.000000     0.000000     0.000000    -1.000000     0.500000     0.500000     0.000000
   10    -1.000000    90.000000     0.000000     0.000000    -1.000000     0.500000     0.500000     0.000000
   11     1.000000    90.000000     0.000000     0.000000     1.000000     0.500000     0.500000     0.000000
   12    -1.000000    90.000000     0.000000     0.000000     1.000000     0.500000     0.500000     0.000000
   13     1.000000   180.000000     0.707107     0.707107     0.000000     0.500000     0.500000     0.000000
   14    -1.000000   180.000000     0.707107     0.707107     0.000000     0.500000     0.500000     0.000000
   15     1.000000   180.000000     0.707107    -0.707107     0.000000     0.500000     0.500000     0.000000
   16    -1.000000   180.000000     0.707107    -0.707107     0.000000     0.500000     0.500000     0.000000
 
 Subroutine IBZKPT returns following result:
 ===========================================
 
 Found     40 irreducible k-points:
 
 Following reciprocal coordinates:
            Coordinates               Weight
  0.000000  0.000000  0.000000      1.000000
  0.142857  0.000000  0.000000      4.000000
  0.285714  0.000000  0.000000      4.000000
  0.428571  0.000000  0.000000      4.000000
  0.142857  0.142857  0.000000      4.000000
  0.285714  0.142857  0.000000      8.000000
  0.428571  0.142857  0.000000      8.000000
  0.285714  0.285714  0.000000      4.000000
  0.428571  0.285714  0.000000      8.000000
  0.428571  0.428571  0.000000      4.000000
  0.000000  0.000000  0.142857      2.000000
  0.142857  0.000000  0.142857      8.000000
  0.285714  0.000000  0.142857      8.000000
  0.428571  0.000000  0.142857      8.000000
  0.142857  0.142857  0.142857      8.000000
  0.285714  0.142857  0.142857     16.000000
  0.428571  0.142857  0.142857     16.000000
  0.285714  0.285714  0.142857      8.000000
  0.428571  0.285714  0.142857     16.000000
  0.428571  0.428571  0.142857      8.000000
  0.000000  0.000000  0.285714      2.000000
  0.142857  0.000000  0.285714      8.000000
  0.285714  0.000000  0.285714      8.000000
  0.428571  0.000000  0.285714      8.000000
  0.142857  0.142857  0.285714      8.000000
  0.285714  0.142857  0.285714     16.000000
  0.428571  0.142857  0.285714     16.000000
  0.285714  0.285714  0.285714      8.000000
  0.428571  0.285714  0.285714     16.000000
  0.428571  0.428571  0.285714      8.000000
  0.000000  0.000000  0.428571      2.000000
  0.142857  0.000000  0.428571      8.000000
  0.285714  0.000000  0.428571      8.000000
  0.428571  0.000000  0.428571      8.000000
  0.142857  0.142857  0.428571      8.000000
  0.285714  0.142857  0.428571     16.000000
  0.428571  0.142857  0.428571     16.000000
  0.285714  0.285714  0.428571      8.000000
  0.428571  0.285714  0.428571     16.000000
  0.428571  0.428571  0.428571      8.000000
 
 Following cartesian coordinates:
            Coordinates               Weight
  0.000000  0.000000  0.000000      1.000000
  0.138191  0.000000  0.000000      4.000000
  0.276382  0.000000  0.000000      4.000000
  0.414574  0.000000  0.000000      4.000000
  0.138191  0.138191  0.000000      4.000000
  0.276382  0.138191  0.000000      8.000000
  0.414574  0.138191  0.000000      8.000000
  0.276382  0.276382  0.000000      4.000000
  0.414574  0.276382  0.000000      8.000000
  0.414574  0.414574  0.000000      4.000000
  0.000000  0.000000  0.138191      2.000000
  0.138191  0.000000  0.138191      8.000000
  0.276382  0.000000  0.138191      8.000000
  0.414574  0.000000  0.138191      8.000000
  0.138191  0.138191  0.138191      8.000000
  0.276382  0.138191  0.138191     16.000000
  0.414574  0.138191  0.138191     16.000000
  0.276382  0.276382  0.138191      8.000000
  0.414574  0.276382  0.138191     16.000000
  0.414574  0.414574  0.138191      8.000000
  0.000000  0.000000  0.276382      2.000000
  0.138191  0.000000  0.276382      8.000000
  0.276382  0.000000  0.276382      8.000000
  0.414574  0.000000  0.276382      8.000000
  0.138191  0.138191  0.276382      8.000000
  0.276382  0.138191  0.276382     16.000000
  0.414574  0.138191  0.276382     16.000000
  0.276382  0.276382  0.276382      8.000000
  0.414574  0.276382  0.276382     16.000000
  0.414574  0.414574  0.276382      8.000000
  0.000000  0.000000  0.414574      2.000000
  0.138191  0.000000  0.414574      8.000000
  0.276382  0.000000  0.414574      8.000000
  0.414574  0.000000  0.414574      8.000000
  0.138191  0.138191  0.414574      8.000000
  0.276382  0.138191  0.414574     16.000000
  0.414574  0.138191  0.414574     16.000000
  0.276382  0.276382  0.414574      8.000000
  0.414574  0.276382  0.414574     16.000000
  0.414574  0.414574  0.414574      8.000000
 


--------------------------------------------------------------------------------------------------------




 Dimension of arrays:
   k-points           NKPTS =     40   k-points in BZ     NKDIM =     40   number of bands    NBANDS=     84
   number of dos      NEDOS =    301   number of ions     NIONS =     16
   non local maximal  LDIM  =      6   non local SUM 2l+1 LMDIM =     18
   total plane-waves  NPLWV =  46656
   max r-space proj   IRMAX =   4056   max aug-charges    IRDMAX=  25127
   dimension x,y,z NGX =    36 NGY =   36 NGZ =   36
   dimension x,y,z NGXF=    72 NGYF=   72 NGZF=   72
   support grid    NGXF=    72 NGYF=   72 NGZF=   72
   ions per type =               8   6   2
   NGX,Y,Z   is equivalent  to a cutoff of  10.05, 10.05, 10.05 a.u.
   NGXF,Y,Z  is equivalent  to a cutoff of  20.10, 20.10, 20.10 a.u.

 SYSTEM =  Testrun for NiMnIn                      
 POSCAR =  Ni2MnIn                                 

 Startparameter for this run:
   NWRITE =      2    write-flag & timer
   PREC   = normal    normal or accurate (medium, high low for compatibility)
   ISTART =      0    job   : 0-new  1-cont  2-samecut
   ICHARG =      2    charge: 1-file 2-atom 10-const
   ISPIN  =      2    spin polarized calculation?
   LNONCOLLINEAR =      F non collinear calculations
   LSORBIT =      F    spin-orbit coupling
   INIWAV =      1    electr: 0-lowe 1-rand  2-diag
   LASPH  =      F    aspherical Exc in radial PAW
   METAGGA=      F    non-selfconsistent MetaGGA calc.

 Electronic Relaxation 1
   ENCUT  =  550.0 eV  40.42 Ry    6.36 a.u.  11.39 11.39 11.39*2*pi/ulx,y,z
   ENINI  =  550.0     initial cutoff
   ENAUG  =  544.6 eV  augmentation charge cutoff
   NELM   =     60;   NELMIN=  2; NELMDL= -5     # of ELM steps 
   EDIFF  = 0.1E-04   stopping-criterion for ELM
   LREAL  =      T    real-space projection
   NLSPLINE    = F    spline interpolate recip. space projectors
   LCOMPAT=      F    compatible to vasp.4.4
   GGA_COMPAT  = T    GGA compatible to vasp.4.4-vasp.4.6
   LMAXPAW     = -100 max onsite density
   LMAXMIX     =    2 max onsite mixed and CHGCAR
   VOSKOWN=      0    Vosko Wilk Nusair interpolation
   ROPT   =   -0.00050  -0.00050  -0.00050
 Ionic relaxation
   EDIFFG = -.1E-01   stopping-criterion for IOM
   NSW    =   1000    number of steps for IOM
   NBLOCK =      1;   KBLOCK =   1000    inner block; outer block 
   IBRION =      2    ionic relax: 0-MD 1-quasi-New 2-CG
   NFREE  =      1    steps in history (QN), initial steepest desc. (CG)
   ISIF   =      2    stress and relaxation
   IWAVPR =     11    prediction:  0-non 1-charg 2-wave 3-comb
   ISYM   =      2    0-nonsym 1-usesym 2-fastsym
   LCORR  =      T    Harris-Foulkes like correction to forces

   POTIM  = 0.5000    time-step for ionic-motion
   TEIN   =    0.0    initial temperature
   TEBEG  =    0.0;   TEEND  =   0.0 temperature during run
   SMASS  =  -3.00    Nose mass-parameter (am)
   estimated Nose-frequenzy (Omega)   =  0.10E-29 period in steps =****** mass=  -0.810E-27a.u.
   SCALEE = 1.0000    scale energy and forces
   NPACO  =    256;   APACO  = 16.0  distance and # of slots for P.C.
   PSTRESS=    0.0 pullay stress

  Mass of Ions in am
   POMASS =  58.69 54.94114.82
  Ionic Valenz
   ZVAL   =  10.00  7.00  3.00
  Atomic Wigner-Seitz radii
   RWIGS  =  -1.00 -1.00 -1.00
  virtual crystal weights 
   VCA    =   1.00  1.00  1.00
   NELECT =     128.0000    total number of electrons
   NUPDOWN=      -1.0000    fix difference up-down

 DOS related values:
   EMIN   =  10.00;   EMAX   =-10.00  energy-range for DOS
   EFERMI =   0.00
   ISMEAR =     0;   SIGMA  =   0.02  broadening in eV -4-tet -1-fermi 0-gaus

 Electronic relaxation 2 (details)
   IALGO  =     68    algorithm
   LDIAG  =      T    sub-space diagonalisation (order eigenvalues)
   LSUBROT=      F    optimize rotation matrix (better conditioning)
   TURBO    =      0    0=normal 1=particle mesh
   IRESTART =      0    0=no restart 2=restart with 2 vectors
   NREBOOT  =      0    no. of reboots
   NMIN     =      0    reboot dimension
   EREF     =   0.00    reference energy to select bands
   IMIX   =      4    mixing-type and parameters
     AMIX     =   0.40;   BMIX     =  1.00
     AMIX_MAG =   1.60;   BMIX_MAG =  1.00
     AMIN     =   0.10
     WC   =   100.;   INIMIX=   1;  MIXPRE=   1;  MAXMIX= -45

 Intra band minimization:
   WEIMIN = 0.0010     energy-eigenvalue tresh-hold
   EBREAK =  0.30E-07  absolut break condition
   DEPER  =   0.30     relativ break condition  

   TIME   =   0.40     timestep for ELM

  volume/ion in A,a.u.               =      13.20        89.04
  Fermi-wavevector in a.u.,A,eV,Ry     =   1.385588  2.618381 26.121197  1.919854
  Thomas-Fermi vector in A             =   2.509984

 Write flags
   LWAVE        =      F    write WAVECAR
   LDOWNSAMPLE  =      F    k-point downsampling of WAVECAR
   LCHARG       =      T    write CHGCAR
   LVTOT        =      F    write LOCPOT, total local potential
   LVHAR        =      F    write LOCPOT, Hartree potential only
   LELF         =      F    write electronic localiz. function (ELF)
   LORBIT       =     11    0 simple, 1 ext, 2 COOP (PROOUT), +10 PAW based schemes


 Dipole corrections
   LMONO  =      F    monopole corrections only (constant potential shift)
   LDIPOL =      F    correct potential (dipole corrections)
   IDIPOL =      0    1-x, 2-y, 3-z, 4-all directions 
   EPSILON=  1.0000000 bulk dielectric constant

 Exchange correlation treatment:
   GGA     =    --    GGA type
   LEXCH   =     8    internal setting for exchange type
   VOSKOWN=      0    Vosko Wilk Nusair interpolation
   LHFCALC =     F    Hartree Fock is set to
   LHFONE  =     F    Hartree Fock one center treatment
   AEXX    =    0.0000 exact exchange contribution

 Linear response parameters
   LEPSILON=     F    determine dielectric tensor
   LRPA    =     F    only Hartree local field effects (RPA)
   LNABLA  =     F    use nabla operator in PAW spheres
   LVEL    =     F    velocity operator in full k-point grid
   LINTERFAST=   F  fast interpolation
   KINTER  =     0    interpolate to denser k-point grid
   CSHIFT  =0.1000    complex shift for real part using Kramers Kronig
   OMEGAMAX=  -1.0    maximum frequency
   DEG_THRESHOLD= 0.2000000E-02 threshold for treating states as degnerate
   RTIME   =   -0.100 relaxation time in fs
  (WPLASMAI=    0.000 imaginary part of plasma frequency in eV, 0.658/RTIME)
   DFIELD  = 0.0000000 0.0000000 0.0000000 field for delta impulse in time

 Orbital magnetization related:
   ORBITALMAG=     F  switch on orbital magnetization
   LCHIMAG   =     F  perturbation theory with respect to B field
   DQ        =  0.001000  dq finite difference perturbation B field
   LLRAUG    =     F  two centre corrections for induced B field



--------------------------------------------------------------------------------------------------------


 conjugate gradient relaxation of ions
 charge density and potential will be updated during run
 spin polarized calculation
 RMM-DIIS sequential band-by-band and
  variant of blocked Davidson during initial phase
 perform sub-space diagonalisation
    before iterative eigenvector-optimisation
 modified Broyden-mixing scheme, WC =      100.0
 initial mixing is a Kerker type mixing with AMIX =  0.4000 and BMIX =      1.0000
 Hartree-type preconditioning will be used
 using additional bands           20
 real space projection scheme for non local part
 use partial core corrections
 calculate Harris-corrections to forces   (improved forces if not selfconsistent)
 use gradient corrections 
 use of overlap-Matrix (Vanderbilt PP)
 Gauss-broadening in eV      SIGMA  =   0.02


--------------------------------------------------------------------------------------------------------


  energy-cutoff  :      550.00
  volume of cell :      211.12
      direct lattice vectors                 reciprocal lattice vectors
     5.954483191  0.000000000  0.000000000     0.167940687  0.000000000  0.000000000
     0.000000000  5.954483191  0.000000000     0.000000000  0.167940687  0.000000000
     0.000000000  0.000000000  5.954483191     0.000000000  0.000000000  0.167940687

  length of vectors
     5.954483191  5.954483191  5.954483191     0.167940687  0.167940687  0.167940687



 k-points in units of 2pi/SCALE and weight: k-points                                
   0.00000000  0.00000000  0.00000000       0.003
   0.13819119  0.00000000  0.00000000       0.012
   0.27638239  0.00000000  0.00000000       0.012
   0.41457358  0.00000000  0.00000000       0.012
   0.13819119  0.13819119  0.00000000       0.012
   0.27638239  0.13819119  0.00000000       0.023
   0.41457358  0.13819119  0.00000000       0.023
   0.27638239  0.27638239  0.00000000       0.012
   0.41457358  0.27638239  0.00000000       0.023
   0.41457358  0.41457358  0.00000000       0.012
   0.00000000  0.00000000  0.13819119       0.006
   0.13819119  0.00000000  0.13819119       0.023
   0.27638239  0.00000000  0.13819119       0.023
   0.41457358  0.00000000  0.13819119       0.023
   0.13819119  0.13819119  0.13819119       0.023
   0.27638239  0.13819119  0.13819119       0.047
   0.41457358  0.13819119  0.13819119       0.047
   0.27638239  0.27638239  0.13819119       0.023
   0.41457358  0.27638239  0.13819119       0.047
   0.41457358  0.41457358  0.13819119       0.023
   0.00000000  0.00000000  0.27638239       0.006
   0.13819119  0.00000000  0.27638239       0.023
   0.27638239  0.00000000  0.27638239       0.023
   0.41457358  0.00000000  0.27638239       0.023
   0.13819119  0.13819119  0.27638239       0.023
   0.27638239  0.13819119  0.27638239       0.047
   0.41457358  0.13819119  0.27638239       0.047
   0.27638239  0.27638239  0.27638239       0.023
   0.41457358  0.27638239  0.27638239       0.047
   0.41457358  0.41457358  0.27638239       0.023
   0.00000000  0.00000000  0.41457358       0.006
   0.13819119  0.00000000  0.41457358       0.023
   0.27638239  0.00000000  0.41457358       0.023
   0.41457358  0.00000000  0.41457358       0.023
   0.13819119  0.13819119  0.41457358       0.023
   0.27638239  0.13819119  0.41457358       0.047
   0.41457358  0.13819119  0.41457358       0.047
   0.27638239  0.27638239  0.41457358       0.023
   0.41457358  0.27638239  0.41457358       0.047
   0.41457358  0.41457358  0.41457358       0.023

 k-points in reciprocal lattice and weights: k-points                                
   0.00000000  0.00000000  0.00000000       0.003
   0.14285714  0.00000000  0.00000000       0.012
   0.28571429  0.00000000  0.00000000       0.012
   0.42857143  0.00000000  0.00000000       0.012
   0.14285714  0.14285714  0.00000000       0.012
   0.28571429  0.14285714  0.00000000       0.023
   0.42857143  0.14285714  0.00000000       0.023
   0.28571429  0.28571429  0.00000000       0.012
   0.42857143  0.28571429  0.00000000       0.023
   0.42857143  0.42857143  0.00000000       0.012
   0.00000000  0.00000000  0.14285714       0.006
   0.14285714  0.00000000  0.14285714       0.023
   0.28571429  0.00000000  0.14285714       0.023
   0.42857143  0.00000000  0.14285714       0.023
   0.14285714  0.14285714  0.14285714       0.023
   0.28571429  0.14285714  0.14285714       0.047
   0.42857143  0.14285714  0.14285714       0.047
   0.28571429  0.28571429  0.14285714       0.023
   0.42857143  0.28571429  0.14285714       0.047
   0.42857143  0.42857143  0.14285714       0.023
   0.00000000  0.00000000  0.28571429       0.006
   0.14285714  0.00000000  0.28571429       0.023
   0.28571429  0.00000000  0.28571429       0.023
   0.42857143  0.00000000  0.28571429       0.023
   0.14285714  0.14285714  0.28571429       0.023
   0.28571429  0.14285714  0.28571429       0.047
   0.42857143  0.14285714  0.28571429       0.047
   0.28571429  0.28571429  0.28571429       0.023
   0.42857143  0.28571429  0.28571429       0.047
   0.42857143  0.42857143  0.28571429       0.023
   0.00000000  0.00000000  0.42857143       0.006
   0.14285714  0.00000000  0.42857143       0.023
   0.28571429  0.00000000  0.42857143       0.023
   0.42857143  0.00000000  0.42857143       0.023
   0.14285714  0.14285714  0.42857143       0.023
   0.28571429  0.14285714  0.42857143       0.047
   0.42857143  0.14285714  0.42857143       0.047
   0.28571429  0.28571429  0.42857143       0.023
   0.42857143  0.28571429  0.42857143       0.047
   0.42857143  0.42857143  0.42857143       0.023

 position of ions in fractional coordinates (direct lattice) 
   0.24934355  0.25065645  0.26847318
   0.75065645  0.25065645  0.26847318
   0.24934355  0.74934355  0.26847318
   0.75065645  0.74934355  0.26847318
   0.24934355  0.25065645  0.73152682
   0.75065645  0.25065645  0.73152682
   0.24934355  0.74934355  0.73152682
   0.75065645  0.74934355  0.73152682
   0.50000000  0.00000000  0.00000000
   0.00000000  0.50000000  0.00000000
   0.00000000  0.00000000  0.50000000
   0.50000000  0.00000000  0.50000000
   0.50000000  0.50000000  0.50000000
   0.00000000  0.50000000  0.50000000
   0.00000000  0.00000000  0.00000000
   0.50000000  0.50000000  0.00000000

 position of ions in cartesian coordinates  (Angst):
   1.48471197  1.49252962  1.59861902
   4.46977122  1.49252962  1.59861902
   1.48471197  4.46195357  1.59861902
   4.46977122  4.46195357  1.59861902
   1.48471197  1.49252962  4.35586417
   4.46977122  1.49252962  4.35586417
   1.48471197  4.46195357  4.35586417
   4.46977122  4.46195357  4.35586417
   2.97724160  0.00000000  0.00000000
   0.00000000  2.97724160  0.00000000
   0.00000000  0.00000000  2.97724160
   2.97724160  0.00000000  2.97724160
   2.97724160  2.97724160  2.97724160
   0.00000000  2.97724160  2.97724160
   0.00000000  0.00000000  0.00000000
   2.97724160  2.97724160  0.00000000



--------------------------------------------------------------------------------------------------------


 k-point  1 :   0.0000 0.0000 0.0000  plane waves:    6187
 k-point  2 :   0.1429 0.0000 0.0000  plane waves:    6187
 k-point  3 :   0.2857 0.0000 0.0000  plane waves:    6167
 k-point  4 :   0.4286 0.0000 0.0000  plane waves:    6190
 k-point  5 :   0.1429 0.1429 0.0000  plane waves:    6194
 k-point  6 :   0.2857 0.1429 0.0000  plane waves:    6184
 k-point  7 :   0.4286 0.1429 0.0000  plane waves:    6199
 k-point  8 :   0.2857 0.2857 0.0000  plane waves:    6194
 k-point  9 :   0.4286 0.2857 0.0000  plane waves:    6179
 k-point 10 :   0.4286 0.4286 0.0000  plane waves:    6174
 k-point 11 :   0.0000 0.0000 0.1429  plane waves:    6187
 k-point 12 :   0.1429 0.0000 0.1429  plane waves:    6194
 k-point 13 :   0.2857 0.0000 0.1429  plane waves:    6184
 k-point 14 :   0.4286 0.0000 0.1429  plane waves:    6199
 k-point 15 :   0.1429 0.1429 0.1429  plane waves:    6193
 k-point 16 :   0.2857 0.1429 0.1429  plane waves:    6186
 k-point 17 :   0.4286 0.1429 0.1429  plane waves:    6176
 k-point 18 :   0.2857 0.2857 0.1429  plane waves:    6179
 k-point 19 :   0.4286 0.2857 0.1429  plane waves:    6181
 k-point 20 :   0.4286 0.4286 0.1429  plane waves:    6175
 k-point 21 :   0.0000 0.0000 0.2857  plane waves:    6167
 k-point 22 :   0.1429 0.0000 0.2857  plane waves:    6184
 k-point 23 :   0.2857 0.0000 0.2857  plane waves:    6194
 k-point 24 :   0.4286 0.0000 0.2857  plane waves:    6179
 k-point 25 :   0.1429 0.1429 0.2857  plane waves:    6186
 k-point 26 :   0.2857 0.1429 0.2857  plane waves:    6179
 k-point 27 :   0.4286 0.1429 0.2857  plane waves:    6181
 k-point 28 :   0.2857 0.2857 0.2857  plane waves:    6181
 k-point 29 :   0.4286 0.2857 0.2857  plane waves:    6196
 k-point 30 :   0.4286 0.4286 0.2857  plane waves:    6164
 k-point 31 :   0.0000 0.0000 0.4286  plane waves:    6190
 k-point 32 :   0.1429 0.0000 0.4286  plane waves:    6199
 k-point 33 :   0.2857 0.0000 0.4286  plane waves:    6179
 k-point 34 :   0.4286 0.0000 0.4286  plane waves:    6174
 k-point 35 :   0.1429 0.1429 0.4286  plane waves:    6176
 k-point 36 :   0.2857 0.1429 0.4286  plane waves:    6181
 k-point 37 :   0.4286 0.1429 0.4286  plane waves:    6175
 k-point 38 :   0.2857 0.2857 0.4286  plane waves:    6196
 k-point 39 :   0.4286 0.2857 0.4286  plane waves:    6164
 k-point 40 :   0.4286 0.4286 0.4286  plane waves:    6137

 maximum and minimum number of plane-waves per node :      6199     6137

 maximum number of plane-waves:      6199
 maximum index in each direction: 
   IXMAX=   11   IYMAX=   11   IZMAX=   11
   IXMIN=  -11   IYMIN=  -11   IZMIN=  -11


 serial   3D FFT for wavefunctions
 parallel 3D FFT for charge:
    minimum data exchange during FFTs selected (reduces bandwidth)


 total amount of memory used by VASP MPI-rank0   103307. kBytes
=======================================================================

   base      :      30000. kBytes
   nonlr-proj:       6800. kBytes
   fftplans  :       1269. kBytes
   grid      :       6573. kBytes
   one-center:        497. kBytes
   wavefun   :      58168. kBytes

     INWAV:  cpu time    0.0000: real time    0.0000
 Broyden mixing: mesh for mixing (old mesh)
   NGX = 23   NGY = 23   NGZ = 23
  (NGX  = 72   NGY  = 72   NGZ  = 72)
  gives a total of  12167 points

 initial charge density was supplied:
 charge density of overlapping atoms calculated
 number of electron     128.0000000 magnetization       0.8000000
 keeping initial charge density in first step


--------------------------------------------------------------------------------------------------------


 Maximum index for non-local projection operator         3887
 Maximum index for augmentation-charges         2111 (set IRDMAX)


--------------------------------------------------------------------------------------------------------


 First call to EWALD:  gamma=   0.298
 Maximum number of real-space cells 3x 3x 3
 Maximum number of reciprocal cells 3x 3x 3

    FEWALD:  cpu time    0.0090: real time    0.0090


--------------------------------------- Iteration      1(   1)  ---------------------------------------


    POTLOK:  cpu time    0.2515: real time    0.4324
    SETDIJ:  cpu time    0.0483: real time    0.0483
     EDDAV:  cpu time   39.8607: real time   39.8825
       DOS:  cpu time    0.1390: real time    0.1390
    --------------------------------------------
      LOOP:  cpu time   40.2995: real time   40.5022

 eigenvalue-minimisations  : 13440
 total energy-change (2. order) : 0.1068646E+04  (-0.5417709E+04)
 number of electron     128.0000000 magnetization       0.8000000
 augmentation part      128.0000000 magnetization       0.8000000

 Free energy of the ion-electron system (eV)
  ---------------------------------------------------
  alpha Z        PSCENC =       532.98518337
  Ewald energy   TEWEN  =     -9293.71337143
  -Hartree energ DENC   =     -3137.75991907
  -exchange      EXHF   =         0.00000000
  -V(xc)+E(xc)   XCENC  =        78.36322535
  PAW double counting   =     10320.96726947   -10647.99417394
  entropy T*S    EENTRO =        -0.00119744
  eigenvalues    EBANDS =      1986.33688214
  atomic energy  EATOM  =     11229.46195210
  Solvation  Ediel_sol  =         0.00000000
  ---------------------------------------------------
  free energy    TOTEN  =      1068.64585055 eV

  energy without entropy =     1068.64704799  energy(sigma->0) =     1068.64644927


--------------------------------------------------------------------------------------------------------




--------------------------------------- Iteration      1(   2)  ---------------------------------------


     EDDAV:  cpu time   37.7304: real time   37.7666
       DOS:  cpu time    0.0036: real time    0.0036
    --------------------------------------------
      LOOP:  cpu time   37.7340: real time   37.7702

 eigenvalue-minimisations  : 13440
 total energy-change (2. order) :-0.1066926E+04  (-0.1034004E+04)
 number of electron     128.0000000 magnetization       0.8000000
 augmentation part      128.0000000 magnetization       0.8000000

 Free energy of the ion-electron system (eV)
  ---------------------------------------------------
  alpha Z        PSCENC =       532.98518337
  Ewald energy   TEWEN  =     -9293.71337143
  -Hartree energ DENC   =     -3137.75991907
  -exchange      EXHF   =         0.00000000
  -V(xc)+E(xc)   XCENC  =        78.36322535
  PAW double counting   =     10320.96726947   -10647.99417394
  entropy T*S    EENTRO =        -0.00209106
  eigenvalues    EBANDS =       919.41158559
  atomic energy  EATOM  =     11229.46195210
  Solvation  Ediel_sol  =         0.00000000
  ---------------------------------------------------
  free energy    TOTEN  =         1.71966037 eV

  energy without entropy =        1.72175143  energy(sigma->0) =        1.72070590


--------------------------------------------------------------------------------------------------------




--------------------------------------- Iteration      1(   3)  ---------------------------------------


     EDDAV:  cpu time   43.8472: real time   43.8953
       DOS:  cpu time    0.0037: real time    0.0037
    --------------------------------------------
      LOOP:  cpu time   43.8509: real time   43.8990

 eigenvalue-minimisations  : 14988
 total energy-change (2. order) :-0.1116444E+03  (-0.1005473E+03)
 number of electron     128.0000000 magnetization       0.8000000
 augmentation part      128.0000000 magnetization       0.8000000

 Free energy of the ion-electron system (eV)
  ---------------------------------------------------
  alpha Z        PSCENC =       532.98518337
  Ewald energy   TEWEN  =     -9293.71337143
  -Hartree energ DENC   =     -3137.75991907
  -exchange      EXHF   =         0.00000000
  -V(xc)+E(xc)   XCENC  =        78.36322535
  PAW double counting   =     10320.96726947   -10647.99417394
  entropy T*S    EENTRO =        -0.00256934
  eigenvalues    EBANDS =       807.76766493
  atomic energy  EATOM  =     11229.46195210
  Solvation  Ediel_sol  =         0.00000000
  ---------------------------------------------------
  free energy    TOTEN  =      -109.92473855 eV

  energy without entropy =     -109.92216922  energy(sigma->0) =     -109.92345389


--------------------------------------------------------------------------------------------------------




--------------------------------------- Iteration      1(   4)  ---------------------------------------


     EDDAV:  cpu time   55.3697: real time   55.4484
       DOS:  cpu time    0.0037: real time    0.0037
    --------------------------------------------
      LOOP:  cpu time   55.3734: real time   55.4521

 eigenvalue-minimisations  : 20520
 total energy-change (2. order) :-0.6931042E+01  (-0.6569656E+01)
 number of electron     128.0000000 magnetization       0.8000000
 augmentation part      128.0000000 magnetization       0.8000000

 Free energy of the ion-electron system (eV)
  ---------------------------------------------------
  alpha Z        PSCENC =       532.98518337
  Ewald energy   TEWEN  =     -9293.71337143
  -Hartree energ DENC   =     -3137.75991907
  -exchange      EXHF   =         0.00000000
  -V(xc)+E(xc)   XCENC  =        78.36322535
  PAW double counting   =     10320.96726947   -10647.99417394
  entropy T*S    EENTRO =        -0.00246071
  eigenvalues    EBANDS =       800.83651465
  atomic energy  EATOM  =     11229.46195210
  Solvation  Ediel_sol  =         0.00000000
  ---------------------------------------------------
  free energy    TOTEN  =      -116.85578021 eV

  energy without entropy =     -116.85331950  energy(sigma->0) =     -116.85454986


--------------------------------------------------------------------------------------------------------




--------------------------------------- Iteration      1(   5)  ---------------------------------------


     EDDAV:  cpu time   49.7922: real time   52.5429
       DOS:  cpu time    0.0036: real time    0.0036
    CHARGE:  cpu time    0.6986: real time    0.6990
    MIXING:  cpu time    0.0016: real time    0.0016
    --------------------------------------------
      LOOP:  cpu time   50.4960: real time   53.2471

 eigenvalue-minimisations  : 19572
 total energy-change (2. order) :-0.2249675E+00  (-0.2240568E+00)
 number of electron     127.9999911 magnetization      -0.2593437
 augmentation part       60.6459607 magnetization       0.1631918

 Broyden mixing:
  rms(total) = 0.34467E+01    rms(broyden)= 0.34467E+01
  rms(prec ) = 0.53237E+01
  weight for this iteration     100.00

 Free energy of the ion-electron system (eV)
  ---------------------------------------------------
  alpha Z        PSCENC =       532.98518337
  Ewald energy   TEWEN  =     -9293.71337143
  -Hartree energ DENC   =     -3137.75991907
  -exchange      EXHF   =         0.00000000
  -V(xc)+E(xc)   XCENC  =        78.36322535
  PAW double counting   =     10320.96726947   -10647.99417394
  entropy T*S    EENTRO =        -0.00241234
  eigenvalues    EBANDS =       800.61149880
  atomic energy  EATOM  =     11229.46195210
  Solvation  Ediel_sol  =         0.00000000
  ---------------------------------------------------
  free energy    TOTEN  =      -117.08074769 eV

  energy without entropy =     -117.07833535  energy(sigma->0) =     -117.07954152


--------------------------------------------------------------------------------------------------------




--------------------------------------- Iteration      1(   6)  ---------------------------------------


    POTLOK:  cpu time    0.1004: real time    0.1016
    SETDIJ:  cpu time    0.0352: real time    0.0352
    EDDIAG:  cpu time    5.1129: real time    5.2873
  RMM-DIIS:  cpu time    9.6588: real time   11.8018
    ORTHCH:  cpu time    1.0984: real time    1.0989
       DOS:  cpu time    0.0037: real time    0.0038
    CHARGE:  cpu time    1.1447: real time    1.2333
    MIXING:  cpu time    0.0043: real time    0.0044
    --------------------------------------------
      LOOP:  cpu time   17.1585: real time   19.5664

 eigenvalue-minimisations  : 13440
 total energy-change (2. order) : 0.6723759E+01  (-0.1644979E+02)
 number of electron     127.9999990 magnetization       0.9048591
 augmentation part       69.6254485 magnetization      -0.1134955

 Broyden mixing:
  rms(total) = 0.47309E+01    rms(broyden)= 0.47308E+01
  rms(prec ) = 0.64764E+01
  weight for this iteration     100.00

 eigenvalues of (default mixing * dielectric matrix)
  average eigenvalue GAMMA=   0.2179
  0.2179

 Free energy of the ion-electron system (eV)
  ---------------------------------------------------
  alpha Z        PSCENC =       532.98518337
  Ewald energy   TEWEN  =     -9293.71337143
  -Hartree energ DENC   =     -2904.99020785
  -exchange      EXHF   =         0.00000000
  -V(xc)+E(xc)   XCENC  =        66.45076320
  PAW double counting   =     11133.60873133   -11426.98600789
  entropy T*S    EENTRO =        -0.00412060
  eigenvalues    EBANDS =       552.83008868
  atomic energy  EATOM  =     11229.46195210
  Solvation  Ediel_sol  =         0.00000000
  ---------------------------------------------------
  free energy    TOTEN  =      -110.35698911 eV

  energy without entropy =     -110.35286851  energy(sigma->0) =     -110.35492881


--------------------------------------------------------------------------------------------------------




--------------------------------------- Iteration      1(   7)  ---------------------------------------


    POTLOK:  cpu time    0.1633: real time    0.1634
    SETDIJ:  cpu time    0.0355: real time    0.0355
    EDDIAG:  cpu time    4.6398: real time    4.6435
  RMM-DIIS:  cpu time   10.9504: real time   10.9709
    ORTHCH:  cpu time    0.6122: real time    0.6127
       DOS:  cpu time    0.0037: real time    0.0037
    CHARGE:  cpu time    1.0052: real time    1.0056
    MIXING:  cpu time    0.0057: real time    0.0057
    --------------------------------------------
      LOOP:  cpu time   17.4158: real time   17.4410

 eigenvalue-minimisations  : 13461
 total energy-change (2. order) :-0.2353320E+01  (-0.2593381E+01)
 number of electron     127.9999893 magnetization       1.3820536
 augmentation part       70.2326008 magnetization       1.8284473

 Broyden mixing:
  rms(total) = 0.39473E+01    rms(broyden)= 0.39472E+01
  rms(prec ) = 0.73485E+01
  weight for this iteration     100.00

 eigenvalues of (default mixing * dielectric matrix)
  average eigenvalue GAMMA=   0.3781
  0.3781  0.3781

 Free energy of the ion-electron system (eV)
  ---------------------------------------------------
  alpha Z        PSCENC =       532.98518337
  Ewald energy   TEWEN  =     -9293.71337143
  -Hartree energ DENC   =     -2892.41235218
  -exchange      EXHF   =         0.00000000
  -V(xc)+E(xc)   XCENC  =        67.03583127
  PAW double counting   =     11409.94544261   -11708.51055291
  entropy T*S    EENTRO =        -0.00262464
  eigenvalues    EBANDS =       542.50018233
  atomic energy  EATOM  =     11229.46195210
  Solvation  Ediel_sol  =         0.00000000
  ---------------------------------------------------
  free energy    TOTEN  =      -112.71030949 eV

  energy without entropy =     -112.70768485  energy(sigma->0) =     -112.70899717


--------------------------------------------------------------------------------------------------------




--------------------------------------- Iteration      1(   8)  ---------------------------------------


    POTLOK:  cpu time    0.2025: real time    0.2026
    SETDIJ:  cpu time    0.0355: real time    0.0355
    EDDIAG:  cpu time    4.6706: real time    4.6735
  RMM-DIIS:  cpu time   11.0329: real time   11.0410
    ORTHCH:  cpu time    1.8373: real time    1.8379
       DOS:  cpu time    0.0036: real time    0.0036
    CHARGE:  cpu time    0.7552: real time    0.7556
    MIXING:  cpu time    0.0018: real time    0.0018
    --------------------------------------------
      LOOP:  cpu time   18.5395: real time   18.5517

 eigenvalue-minimisations  : 13440
 total energy-change (2. order) : 0.5076529E+01  (-0.2671320E+01)
 number of electron     127.9999950 magnetization       1.7296801
 augmentation part       68.9624717 magnetization       1.0160146

 Broyden mixing:
  rms(total) = 0.30517E+01    rms(broyden)= 0.30516E+01
  rms(prec ) = 0.58064E+01
  weight for this iteration     100.00

 eigenvalues of (default mixing * dielectric matrix)
  average eigenvalue GAMMA=   0.3990
  0.5187  0.5187  0.1596

 Free energy of the ion-electron system (eV)
  ---------------------------------------------------
  alpha Z        PSCENC =       532.98518337
  Ewald energy   TEWEN  =     -9293.71337143
  -Hartree energ DENC   =     -2936.85444360
  -exchange      EXHF   =         0.00000000
  -V(xc)+E(xc)   XCENC  =        70.25459476
  PAW double counting   =     11736.95304264   -12056.33797205
  entropy T*S    EENTRO =        -0.00312657
  eigenvalues    EBANDS =       609.62036065
  atomic energy  EATOM  =     11229.46195210
  Solvation  Ediel_sol  =         0.00000000
  ---------------------------------------------------
  free energy    TOTEN  =      -107.63378014 eV

  energy without entropy =     -107.63065356  energy(sigma->0) =     -107.63221685


--------------------------------------------------------------------------------------------------------




--------------------------------------- Iteration      1(   9)  ---------------------------------------


    POTLOK:  cpu time    0.6936: real time    0.6938
    SETDIJ:  cpu time    0.0355: real time    0.0355
    EDDIAG:  cpu time    4.6879: real time    4.6908
  RMM-DIIS:  cpu time   11.0289: real time   11.0371
    ORTHCH:  cpu time    0.6133: real time    0.6137
       DOS:  cpu time    0.0036: real time    0.0037
    CHARGE:  cpu time    1.2748: real time    1.2753
    MIXING:  cpu time    0.0019: real time    0.0019
    --------------------------------------------
      LOOP:  cpu time   18.3395: real time   18.3518

 eigenvalue-minimisations  : 13459
 total energy-change (2. order) : 0.4042226E+01  (-0.8321977E+00)
 number of electron     127.9999955 magnetization       1.5556577
 augmentation part       66.7059849 magnetization       1.7041057

 Broyden mixing:
  rms(total) = 0.16724E+01    rms(broyden)= 0.16723E+01
  rms(prec ) = 0.26482E+01
  weight for this iteration     100.00

 eigenvalues of (default mixing * dielectric matrix)
  average eigenvalue GAMMA=   0.4748
  0.9992  0.4928  0.2747  0.1324

 Free energy of the ion-electron system (eV)
  ---------------------------------------------------
  alpha Z        PSCENC =       532.98518337
  Ewald energy   TEWEN  =     -9293.71337143
  -Hartree energ DENC   =     -2961.97721274
  -exchange      EXHF   =         0.00000000
  -V(xc)+E(xc)   XCENC  =        71.80532704
  PAW double counting   =     11959.39904157   -12290.08933816
  entropy T*S    EENTRO =        -0.00303453
  eigenvalues    EBANDS =       648.53989818
  atomic energy  EATOM  =     11229.46195210
  Solvation  Ediel_sol  =         0.00000000
  ---------------------------------------------------
  free energy    TOTEN  =      -103.59155460 eV

  energy without entropy =     -103.58852007  energy(sigma->0) =     -103.59003734


--------------------------------------------------------------------------------------------------------




--------------------------------------- Iteration      1(  10)  ---------------------------------------


    POTLOK:  cpu time    0.1063: real time    0.1087
    SETDIJ:  cpu time    0.0379: real time    0.0379
    EDDIAG:  cpu time    4.7689: real time    4.7731
  RMM-DIIS:  cpu time   10.9736: real time   10.9868
    ORTHCH:  cpu time    0.6251: real time    0.6256
       DOS:  cpu time    0.0197: real time    0.0198
    CHARGE:  cpu time    0.8421: real time    0.8432
    MIXING:  cpu time    0.0020: real time    0.0020
    --------------------------------------------
      LOOP:  cpu time   17.3756: real time   17.3972

 eigenvalue-minimisations  : 13442
 total energy-change (2. order) : 0.7729421E+00  (-0.2009917E+00)
 number of electron     127.9999932 magnetization       1.1176744
 augmentation part       67.6695529 magnetization       1.3276883

 Broyden mixing:
  rms(total) = 0.95704E+00    rms(broyden)= 0.95699E+00
  rms(prec ) = 0.12105E+01
  weight for this iteration     100.00

 eigenvalues of (default mixing * dielectric matrix)
  average eigenvalue GAMMA=   0.4537
  0.9915  0.4628  0.4628  0.2164  0.1351

 Free energy of the ion-electron system (eV)
  ---------------------------------------------------
  alpha Z        PSCENC =       532.98518337
  Ewald energy   TEWEN  =     -9293.71337143
  -Hartree energ DENC   =     -2943.00704351
  -exchange      EXHF   =         0.00000000
  -V(xc)+E(xc)   XCENC  =        71.48459665
  PAW double counting   =     12256.78389760   -12589.98538024
  entropy T*S    EENTRO =        -0.00234348
  eigenvalues    EBANDS =       633.17389641
  atomic energy  EATOM  =     11229.46195210
  Solvation  Ediel_sol  =         0.00000000
  ---------------------------------------------------
  free energy    TOTEN  =      -102.81861253 eV

  energy without entropy =     -102.81626905  energy(sigma->0) =     -102.81744079


--------------------------------------------------------------------------------------------------------




--------------------------------------- Iteration      1(  11)  ---------------------------------------


    POTLOK:  cpu time    0.0989: real time    0.0989
    SETDIJ:  cpu time    0.0354: real time    0.0354
    EDDIAG:  cpu time    6.5573: real time    7.4039
  RMM-DIIS:  cpu time   10.7774: real time   11.2654
    ORTHCH:  cpu time    1.1240: real time    1.3104
       DOS:  cpu time    0.0037: real time    0.0037
    CHARGE:  cpu time    0.7001: real time    0.7005
    MIXING:  cpu time    0.0021: real time    0.0021
    --------------------------------------------
      LOOP:  cpu time   19.2989: real time   20.8202

 eigenvalue-minimisations  : 13493
 total energy-change (2. order) :-0.9294654E-01  (-0.3571063E-01)
 number of electron     127.9999941 magnetization       0.3100683
 augmentation part       67.4856155 magnetization       0.5807344

 Broyden mixing:
  rms(total) = 0.64252E+00    rms(broyden)= 0.64251E+00
  rms(prec ) = 0.67778E+00
  weight for this iteration     100.00

 eigenvalues of (default mixing * dielectric matrix)
  average eigenvalue GAMMA=   0.5691
  0.9379  0.7882  0.7882  0.5573  0.2093  0.1336

 Free energy of the ion-electron system (eV)
  ---------------------------------------------------
  alpha Z        PSCENC =       532.98518337
  Ewald energy   TEWEN  =     -9293.71337143
  -Hartree energ DENC   =     -2943.84615012
  -exchange      EXHF   =         0.00000000
  -V(xc)+E(xc)   XCENC  =        72.61940028
  PAW double counting   =     12390.01683267   -12726.54067136
  entropy T*S    EENTRO =        -0.00237561
  eigenvalues    EBANDS =       636.10764104
  atomic energy  EATOM  =     11229.46195210
  Solvation  Ediel_sol  =         0.00000000
  ---------------------------------------------------
  free energy    TOTEN  =      -102.91155907 eV

  energy without entropy =     -102.90918346  energy(sigma->0) =     -102.91037126


--------------------------------------------------------------------------------------------------------




--------------------------------------- Iteration      1(  12)  ---------------------------------------


    POTLOK:  cpu time    0.0988: real time    0.0989
    SETDIJ:  cpu time    0.0352: real time    0.0352
    EDDIAG:  cpu time    4.5343: real time    5.3320
  RMM-DIIS:  cpu time   10.5932: real time   11.2324
    ORTHCH:  cpu time    0.6139: real time    0.6144
       DOS:  cpu time    0.0037: real time    0.0037
    CHARGE:  cpu time    0.8683: real time    1.0982
    MIXING:  cpu time    0.0022: real time    0.0022
    --------------------------------------------
      LOOP:  cpu time   16.7496: real time   18.4171

 eigenvalue-minimisations  : 13693
 total energy-change (2. order) :-0.3304000E+00  (-0.3787849E-01)
 number of electron     127.9999942 magnetization      -0.4400859
 augmentation part       67.5375417 magnetization      -0.2446470

 Broyden mixing:
  rms(total) = 0.54532E+00    rms(broyden)= 0.54531E+00
  rms(prec ) = 0.73510E+00
  weight for this iteration     100.00

 eigenvalues of (default mixing * dielectric matrix)
  average eigenvalue GAMMA=   0.6663
  1.8082  0.7872  0.7022  0.7022  0.1336  0.2112  0.3194

 Free energy of the ion-electron system (eV)
  ---------------------------------------------------
  alpha Z        PSCENC =       532.98518337
  Ewald energy   TEWEN  =     -9293.71337143
  -Hartree energ DENC   =     -2940.87599953
  -exchange      EXHF   =         0.00000000
  -V(xc)+E(xc)   XCENC  =        74.09314594
  PAW double counting   =     12588.06515488   -12928.16527919
  entropy T*S    EENTRO =        -0.00207993
  eigenvalues    EBANDS =       634.90933467
  atomic energy  EATOM  =     11229.46195210
  Solvation  Ediel_sol  =         0.00000000
  ---------------------------------------------------
  free energy    TOTEN  =      -103.24195911 eV

  energy without entropy =     -103.23987919  energy(sigma->0) =     -103.24091915


--------------------------------------------------------------------------------------------------------




--------------------------------------- Iteration      1(  13)  ---------------------------------------


    POTLOK:  cpu time    0.0992: real time    0.0993
    SETDIJ:  cpu time    0.0351: real time    0.0351
    EDDIAG:  cpu time    4.9886: real time    5.2940
  RMM-DIIS:  cpu time   10.4483: real time   11.4872
    ORTHCH:  cpu time    0.6756: real time    0.7361
       DOS:  cpu time    0.0036: real time    0.0037
    CHARGE:  cpu time    0.8703: real time    0.9238
    MIXING:  cpu time    0.0024: real time    0.0164
    --------------------------------------------
      LOOP:  cpu time   17.1232: real time   18.5956

 eigenvalue-minimisations  : 13811
 total energy-change (2. order) :-0.3419822E-01  (-0.2843590E-01)
 number of electron     127.9999943 magnetization      -0.4081358
 augmentation part       67.7219920 magnetization      -0.1139730

 Broyden mixing:
  rms(total) = 0.20226E+00    rms(broyden)= 0.20225E+00
  rms(prec ) = 0.25307E+00
  weight for this iteration     100.00

 eigenvalues of (default mixing * dielectric matrix)
  average eigenvalue GAMMA=   0.6844
  1.9771  0.8409  0.8409  0.5850  0.5850  0.1337  0.2103  0.3023

 Free energy of the ion-electron system (eV)
  ---------------------------------------------------
  alpha Z        PSCENC =       532.98518337
  Ewald energy   TEWEN  =     -9293.71337143
  -Hartree energ DENC   =     -2935.32448878
  -exchange      EXHF   =         0.00000000
  -V(xc)+E(xc)   XCENC  =        75.37897104
  PAW double counting   =     12813.80094423   -13157.23759022
  entropy T*S    EENTRO =        -0.00194917
  eigenvalues    EBANDS =       631.37419152
  atomic energy  EATOM  =     11229.46195210
  Solvation  Ediel_sol  =         0.00000000
  ---------------------------------------------------
  free energy    TOTEN  =      -103.27615733 eV

  energy without entropy =     -103.27420817  energy(sigma->0) =     -103.27518275


--------------------------------------------------------------------------------------------------------




--------------------------------------- Iteration      1(  14)  ---------------------------------------


    POTLOK:  cpu time    0.3918: real time    0.4201
    SETDIJ:  cpu time    0.0376: real time    0.0377
    EDDIAG:  cpu time    4.4555: real time    4.7050
  RMM-DIIS:  cpu time   11.7524: real time   12.3524
    ORTHCH:  cpu time    1.0090: real time    1.0295
       DOS:  cpu time    0.0037: real time    0.0038
    CHARGE:  cpu time    1.1389: real time    1.2263
    MIXING:  cpu time    0.0025: real time    0.0025
    --------------------------------------------
      LOOP:  cpu time   18.7914: real time   19.7772

 eigenvalue-minimisations  : 14832
 total energy-change (2. order) :-0.1168966E-01  (-0.6396667E-02)
 number of electron     127.9999943 magnetization      -0.3543109
 augmentation part       67.7057517 magnetization      -0.0241619

 Broyden mixing:
  rms(total) = 0.12252E+00    rms(broyden)= 0.12251E+00
  rms(prec ) = 0.16537E+00
  weight for this iteration     100.00

 eigenvalues of (default mixing * dielectric matrix)
  average eigenvalue GAMMA=   0.7331
  2.0419  1.0467  1.0467  0.6499  0.6499  0.5157  0.1337  0.2108  0.3030

 Free energy of the ion-electron system (eV)
  ---------------------------------------------------
  alpha Z        PSCENC =       532.98518337
  Ewald energy   TEWEN  =     -9293.71337143
  -Hartree energ DENC   =     -2935.33365088
  -exchange      EXHF   =         0.00000000
  -V(xc)+E(xc)   XCENC  =        75.37620400
  PAW double counting   =     12867.25705408   -13211.36436577
  entropy T*S    EENTRO =        -0.00200960
  eigenvalues    EBANDS =       632.04515715
  atomic energy  EATOM  =     11229.46195210
  Solvation  Ediel_sol  =         0.00000000
  ---------------------------------------------------
  free energy    TOTEN  =      -103.28784699 eV

  energy without entropy =     -103.28583739  energy(sigma->0) =     -103.28684219


--------------------------------------------------------------------------------------------------------




--------------------------------------- Iteration      1(  15)  ---------------------------------------


    POTLOK:  cpu time    0.0991: real time    0.0992
    SETDIJ:  cpu time    0.0354: real time    0.0354
    EDDIAG:  cpu time    5.7513: real time    6.0489
  RMM-DIIS:  cpu time   10.4439: real time   11.1638
    ORTHCH:  cpu time    0.6223: real time    0.6287
       DOS:  cpu time    0.0038: real time    0.0038
    CHARGE:  cpu time    1.0449: real time    1.1455
    MIXING:  cpu time    0.0027: real time    0.0028
    --------------------------------------------
      LOOP:  cpu time   18.0035: real time   19.1282

 eigenvalue-minimisations  : 13644
 total energy-change (2. order) :-0.2300438E-02  (-0.3190713E-02)
 number of electron     127.9999943 magnetization      -0.3302784
 augmentation part       67.6826396 magnetization      -0.0264808

 Broyden mixing:
  rms(total) = 0.10579E+00    rms(broyden)= 0.10579E+00
  rms(prec ) = 0.14988E+00
  weight for this iteration     100.00

 eigenvalues of (default mixing * dielectric matrix)
  average eigenvalue GAMMA=   0.7419
  2.2007  1.1809  1.1809  0.6769  0.6769  0.5464  0.1337  0.2107  0.3058  0.3058

 Free energy of the ion-electron system (eV)
  ---------------------------------------------------
  alpha Z        PSCENC =       532.98518337
  Ewald energy   TEWEN  =     -9293.71337143
  -Hartree energ DENC   =     -2935.43088793
  -exchange      EXHF   =         0.00000000
  -V(xc)+E(xc)   XCENC  =        75.35614024
  PAW double counting   =     12896.41876974   -13240.76528454
  entropy T*S    EENTRO =        -0.00183075
  eigenvalues    EBANDS =       632.39918177
  atomic energy  EATOM  =     11229.46195210
  Solvation  Ediel_sol  =         0.00000000
  ---------------------------------------------------
  free energy    TOTEN  =      -103.29014743 eV

  energy without entropy =     -103.28831668  energy(sigma->0) =     -103.28923205


--------------------------------------------------------------------------------------------------------




--------------------------------------- Iteration      1(  16)  ---------------------------------------


    POTLOK:  cpu time    0.0992: real time    0.0992
    SETDIJ:  cpu time    0.0355: real time    0.0355
    EDDIAG:  cpu time    5.1751: real time    5.4075
  RMM-DIIS:  cpu time   11.0444: real time   11.4245
    ORTHCH:  cpu time    0.9823: real time    1.0028
       DOS:  cpu time    0.0035: real time    0.0036
    CHARGE:  cpu time    1.1033: real time    1.3108
    MIXING:  cpu time    0.0028: real time    0.0028
    --------------------------------------------
      LOOP:  cpu time   18.4461: real time   19.2867

 eigenvalue-minimisations  : 13795
 total energy-change (2. order) : 0.2638053E-02  (-0.9925953E-03)
 number of electron     127.9999943 magnetization      -0.3604684
 augmentation part       67.7169577 magnetization      -0.0413734

 Broyden mixing:
  rms(total) = 0.43285E-01    rms(broyden)= 0.43284E-01
  rms(prec ) = 0.49698E-01
  weight for this iteration     100.00

 eigenvalues of (default mixing * dielectric matrix)
  average eigenvalue GAMMA=   0.7569
  2.3429  1.3712  1.0004  0.7282  0.7282  0.6606  0.5387  0.1337  0.2107  0.3146
  0.2968

 Free energy of the ion-electron system (eV)
  ---------------------------------------------------
  alpha Z        PSCENC =       532.98518337
  Ewald energy   TEWEN  =     -9293.71337143
  -Hartree energ DENC   =     -2934.71888044
  -exchange      EXHF   =         0.00000000
  -V(xc)+E(xc)   XCENC  =        75.35604597
  PAW double counting   =     12913.58501586   -13257.89268632
  entropy T*S    EENTRO =        -0.00180227
  eigenvalues    EBANDS =       631.65103379
  atomic energy  EATOM  =     11229.46195210
  Solvation  Ediel_sol  =         0.00000000
  ---------------------------------------------------
  free energy    TOTEN  =      -103.28750937 eV

  energy without entropy =     -103.28570711  energy(sigma->0) =     -103.28660824


--------------------------------------------------------------------------------------------------------




--------------------------------------- Iteration      1(  17)  ---------------------------------------


    POTLOK:  cpu time    0.0991: real time    0.0992
    SETDIJ:  cpu time    0.0354: real time    0.0354
    EDDIAG:  cpu time    4.9395: real time    5.5720
  RMM-DIIS:  cpu time   10.7732: real time   11.8826
    ORTHCH:  cpu time    0.6605: real time    0.6609
       DOS:  cpu time    0.0237: real time    0.0238
    CHARGE:  cpu time    0.6963: real time    0.8003
    MIXING:  cpu time    0.0030: real time    0.0030
    --------------------------------------------
      LOOP:  cpu time   17.2308: real time   19.0773

 eigenvalue-minimisations  : 14039
 total energy-change (2. order) :-0.9741701E-03  (-0.3059489E-03)
 number of electron     127.9999942 magnetization      -0.3776938
 augmentation part       67.7446993 magnetization      -0.0714694

 Broyden mixing:
  rms(total) = 0.29589E-01    rms(broyden)= 0.29589E-01
  rms(prec ) = 0.42533E-01
  weight for this iteration     100.00

 eigenvalues of (default mixing * dielectric matrix)
  average eigenvalue GAMMA=   0.7833
  2.3390  1.8110  0.9561  0.9561  0.6918  0.6918  0.5773  0.1337  0.2107  0.4231
  0.3170  0.2925

 Free energy of the ion-electron system (eV)
  ---------------------------------------------------
  alpha Z        PSCENC =       532.98518337
  Ewald energy   TEWEN  =     -9293.71337143
  -Hartree energ DENC   =     -2934.27966144
  -exchange      EXHF   =         0.00000000
  -V(xc)+E(xc)   XCENC  =        75.44117688
  PAW double counting   =     12921.71540169   -13265.99542102
  entropy T*S    EENTRO =        -0.00179591
  eigenvalues    EBANDS =       631.09805222
  atomic energy  EATOM  =     11229.46195210
  Solvation  Ediel_sol  =         0.00000000
  ---------------------------------------------------
  free energy    TOTEN  =      -103.28848354 eV

  energy without entropy =     -103.28668763  energy(sigma->0) =     -103.28758559


--------------------------------------------------------------------------------------------------------




--------------------------------------- Iteration      1(  18)  ---------------------------------------


    POTLOK:  cpu time    0.1181: real time    0.1191
    SETDIJ:  cpu time    0.0378: real time    0.0378
    EDDIAG:  cpu time    5.2091: real time    5.4597
  RMM-DIIS:  cpu time   10.6656: real time   11.6519
    ORTHCH:  cpu time    0.6163: real time    0.6168
       DOS:  cpu time    0.0035: real time    0.0035
    CHARGE:  cpu time    1.0639: real time    1.2213
    MIXING:  cpu time    0.0032: real time    0.0032
    --------------------------------------------
      LOOP:  cpu time   17.7175: real time   19.1134

 eigenvalue-minimisations  : 13907
 total energy-change (2. order) :-0.6526205E-04  (-0.1535386E-03)
 number of electron     127.9999943 magnetization      -0.3972141
 augmentation part       67.7342932 magnetization      -0.0831509

 Broyden mixing:
  rms(total) = 0.18359E-01    rms(broyden)= 0.18358E-01
  rms(prec ) = 0.29795E-01
  weight for this iteration     100.00

 eigenvalues of (default mixing * dielectric matrix)
  average eigenvalue GAMMA=   0.8256
  2.3118  2.3118  1.0239  1.0239  0.8400  0.6972  0.6972  0.5655  0.1337  0.2107
  0.3229  0.3109  0.2841

 Free energy of the ion-electron system (eV)
  ---------------------------------------------------
[...]
     84      11.9665      0.00000


--------------------------------------------------------------------------------------------------------


 soft charge-density along one line, spin component           1
         0         1         2         3         4         5         6         7         8         9
 total charge-density along one line

 soft charge-density along one line, spin component           2
         0         1         2         3         4         5         6         7         8         9
 total charge-density along one line

 pseudopotential strength for first ion, spin component:           1
 -1.612  -0.013   0.039   0.013  -0.000  -2.249  -0.013   0.038
 -0.013  -1.600  -0.007   0.003   0.014  -0.013  -2.238  -0.007
  0.039  -0.007  -1.587   0.007   0.000   0.038  -0.007  -2.225
  0.013   0.003   0.007  -1.600   0.014   0.013   0.003   0.007
 -0.000   0.014   0.000   0.014  -1.609  -0.000   0.013   0.000
 -2.249  -0.013   0.038   0.013  -0.000  -2.816  -0.013   0.036
 -0.013  -2.238  -0.007   0.003   0.013  -0.013  -2.806  -0.007
  0.038  -0.007  -2.225   0.007   0.000   0.036  -0.007  -2.793
  0.013   0.003   0.007  -2.238   0.013   0.013   0.003   0.007
 -0.000   0.013   0.000   0.013  -2.246  -0.000   0.013   0.000
  0.006   0.002  -0.003  -0.002   0.000   0.006   0.002  -0.003
  0.010   0.004  -0.005  -0.004   0.000   0.010   0.003  -0.004
 -0.002  -0.004   0.000   0.000   0.000  -0.001  -0.004   0.000
  0.000   0.002  -0.011  -0.002   0.000   0.000   0.002  -0.011
  0.002   0.000  -0.000  -0.004   0.000   0.001   0.000  -0.000
 -0.002  -0.003  -0.000   0.000  -0.000  -0.002  -0.003  -0.000
  0.000   0.002  -0.011  -0.002   0.000   0.000   0.002  -0.010
  0.002   0.000   0.000  -0.003  -0.000   0.002   0.000   0.000
 pseudopotential strength for first ion, spin component:           2
 -1.594  -0.001  -0.037   0.001  -0.000  -2.232  -0.000  -0.035
 -0.001  -1.586   0.014  -0.010  -0.023  -0.000  -2.224   0.013
 -0.037   0.014  -1.561  -0.014   0.000  -0.035   0.013  -2.200
  0.001  -0.010  -0.014  -1.586  -0.023   0.000  -0.010  -0.013
 -0.000  -0.023   0.000  -0.023  -1.564  -0.000  -0.022   0.000
 -2.232  -0.000  -0.035   0.000  -0.000  -2.800  -0.000  -0.034
 -0.000  -2.224   0.013  -0.010  -0.022  -0.000  -2.793   0.013
 -0.035   0.013  -2.200  -0.013   0.000  -0.034   0.013  -2.769
  0.000  -0.010  -0.013  -2.224  -0.022   0.000  -0.010  -0.013
 -0.000  -0.022   0.000  -0.022  -2.203  -0.000  -0.021   0.000
 -0.008  -0.005  -0.000   0.005   0.000  -0.008  -0.005  -0.000
 -0.015  -0.008  -0.000   0.008   0.000  -0.014  -0.008  -0.000
  0.003  -0.012   0.001   0.001   0.001   0.003  -0.012   0.001
  0.001  -0.003  -0.013   0.003   0.000   0.001  -0.002  -0.012
 -0.003   0.001  -0.001  -0.012   0.001  -0.003   0.001  -0.001
  0.004  -0.014   0.001   0.001   0.001   0.004  -0.013   0.001
  0.001  -0.003  -0.013   0.003   0.000   0.001  -0.003  -0.013
 -0.004   0.001  -0.001  -0.014   0.001  -0.004   0.001  -0.001
 total augmentation occupancy for first ion, spin component:           1
  1.949  -0.025   0.037   0.025  -0.000  -0.496   0.010  -0.030  -0.010   0.000  -0.080   0.029   0.013   0.033  -0.013  -0.001
 -0.025   2.003   0.013   0.075  -0.002   0.010  -0.535  -0.010  -0.075   0.005   0.030  -0.002   0.027   0.007   0.043  -0.012
  0.037   0.013   2.784  -0.013  -0.000  -0.030  -0.010  -1.066   0.010   0.000  -0.025   0.004  -0.002  -0.073   0.002  -0.001
  0.025   0.075  -0.013   2.003  -0.002  -0.010  -0.075   0.010  -0.535   0.005  -0.030   0.002   0.043  -0.007   0.027  -0.008
  0.000  -0.002   0.000  -0.002   2.785  -0.000   0.005   0.000   0.005  -1.062   0.000  -0.000   0.009  -0.000   0.009  -0.000
 -0.496   0.010  -0.030  -0.010  -0.000   0.819  -0.003   0.014   0.003  -0.000   0.051  -0.018  -0.009  -0.018   0.009   0.000
  0.010  -0.535  -0.010  -0.075   0.005  -0.003   0.848   0.007   0.074  -0.005  -0.018   0.001   0.004  -0.003  -0.025   0.001
 -0.030  -0.010  -1.066   0.010   0.000   0.014   0.007   1.123  -0.007  -0.000   0.022  -0.004   0.001   0.070  -0.001   0.000
 -0.010  -0.075   0.010  -0.535   0.005   0.003   0.074  -0.007   0.848  -0.005   0.018  -0.001  -0.025   0.003   0.004   0.006
  0.000   0.005   0.000   0.005  -1.062  -0.000  -0.005  -0.000  -0.005   1.105   0.000   0.000  -0.007   0.000  -0.007   0.000
 -0.080   0.030  -0.025  -0.030  -0.000   0.051  -0.018   0.022   0.018  -0.000   2.129  -0.284   0.003   0.059  -0.003  -0.001
  0.029  -0.002   0.004   0.002   0.000  -0.018   0.001  -0.004  -0.001   0.000  -0.284   0.048  -0.000   0.001   0.000   0.000
  0.013   0.027  -0.002   0.043   0.009  -0.009   0.004   0.001  -0.025  -0.007   0.003  -0.000   0.256  -0.001   0.001  -0.027
  0.033   0.007  -0.073  -0.007   0.000  -0.018  -0.003   0.070   0.003   0.000   0.059   0.001  -0.001   0.261   0.001   0.000
 -0.013   0.043   0.002   0.027   0.009   0.009  -0.025  -0.001   0.004  -0.007  -0.003   0.000   0.001   0.001   0.256  -0.002
 -0.001  -0.012  -0.001  -0.008  -0.000   0.000   0.001   0.000   0.006   0.000  -0.001   0.000  -0.027   0.000  -0.002   0.003
 -0.008  -0.000  -0.006   0.000  -0.000   0.005   0.000  -0.007  -0.000   0.000  -0.007  -0.000   0.000  -0.027  -0.000  -0.000
  0.001  -0.008   0.001  -0.012  -0.000  -0.000   0.006  -0.000   0.001   0.000   0.001  -0.000  -0.002  -0.000  -0.027   0.000
 total augmentation occupancy for first ion, spin component:           2
  0.089  -0.065  -0.344   0.065   0.000  -0.069   0.075   0.184  -0.075   0.000  -0.100   0.003   0.047   0.003  -0.047  -0.002
 -0.065   0.022   0.073   0.168  -0.171   0.075  -0.018  -0.032  -0.161   0.093  -0.057   0.002  -0.078  -0.038   0.002   0.003
 -0.344   0.073   0.061  -0.073  -0.000   0.186  -0.032  -0.034   0.032  -0.000   0.024  -0.000  -0.007   0.040   0.007  -0.000
  0.065   0.168  -0.073   0.022  -0.171  -0.075  -0.161   0.032  -0.018   0.093   0.057  -0.002   0.002   0.038  -0.078  -0.000
  0.000  -0.171  -0.000  -0.171   0.149  -0.000   0.094  -0.000   0.094  -0.083   0.000   0.000  -0.015   0.000  -0.015   0.000
 -0.069   0.075   0.186  -0.075  -0.000   0.050  -0.074  -0.080   0.074   0.000   0.063  -0.013  -0.031   0.001   0.031   0.003
  0.075  -0.018  -0.032  -0.161   0.094  -0.074   0.012   0.006   0.141  -0.042   0.039  -0.007   0.048   0.023   0.001  -0.005
  0.184  -0.032  -0.034   0.032  -0.000  -0.080   0.006   0.015  -0.006  -0.000  -0.016   0.002   0.007  -0.038  -0.007   0.000
 -0.075  -0.161   0.032  -0.018   0.094   0.074   0.141  -0.006   0.012  -0.042  -0.039   0.007   0.001  -0.023   0.048   0.000
  0.000   0.093  -0.000   0.093  -0.083  -0.000  -0.042  -0.000  -0.042   0.038   0.000   0.000   0.015  -0.000   0.015  -0.000
 -0.100  -0.057   0.024   0.057   0.000   0.063   0.039  -0.016  -0.039   0.000  -0.007  -0.001  -0.002  -0.011   0.002  -0.002
  0.003   0.002  -0.000  -0.002   0.000  -0.013  -0.007   0.002   0.007   0.000  -0.001  -0.000  -0.003  -0.004   0.003   0.000
  0.047  -0.078  -0.007   0.002  -0.015  -0.031   0.048   0.007   0.001   0.015  -0.002  -0.003   0.001   0.008   0.012  -0.000
  0.003  -0.038   0.040   0.038   0.000   0.001   0.023  -0.038  -0.023   0.000  -0.011  -0.004   0.008  -0.005  -0.008  -0.001
 -0.047   0.002   0.007  -0.078  -0.015   0.031   0.001  -0.007   0.048   0.015   0.002   0.003   0.012  -0.008   0.001  -0.002
 -0.002   0.003  -0.000  -0.000   0.000   0.003  -0.005   0.000   0.000  -0.000  -0.002   0.000  -0.000  -0.001  -0.002   0.000
  0.001   0.001  -0.000  -0.001  -0.000  -0.001  -0.003   0.001   0.003  -0.000  -0.002   0.001  -0.001   0.000   0.001   0.000
  0.002  -0.000   0.000   0.003   0.000  -0.003   0.000  -0.000  -0.005  -0.000   0.002  -0.000  -0.002   0.001  -0.000   0.000


------------------------ aborting loop because EDIFF is reached ----------------------------------------





 total charge     

# of ion       s       p       d       tot
------------------------------------------
    1        0.474   0.426   8.377   9.277
    2        0.472   0.427   8.398   9.298
    3        0.473   0.424   8.380   9.277
    4        0.473   0.426   8.378   9.277
    5        0.473   0.426   8.378   9.277
    6        0.473   0.424   8.380   9.277
    7        0.472   0.427   8.398   9.298
    8        0.474   0.426   8.377   9.277
    9        0.311   0.290   4.938   5.539
   10        0.317   0.304   4.917   5.538
   11        0.341   0.346   4.984   5.671
   12        0.349   0.348   4.906   5.604
   13        0.340   0.345   4.934   5.620
   14        0.348   0.340   4.952   5.641
   15        1.251   1.731   0.306   3.288
   16        1.246   1.742   0.305   3.292
--------------------------------------------------
tot          8.288   8.850  97.310 114.448



 magnetization (x)

# of ion       s       p       d       tot
------------------------------------------
    1       -0.004  -0.004   0.010   0.002
    2       -0.003  -0.001   0.029   0.025
    3       -0.003   0.003   0.036   0.036
    4       -0.003  -0.003   0.029   0.023
    5       -0.003  -0.003   0.029   0.023
    6       -0.003   0.003   0.036   0.036
    7       -0.003  -0.001   0.029   0.025
    8       -0.004  -0.004   0.010   0.002
    9       -0.033  -0.018  -3.629  -3.680
   10       -0.034  -0.053  -3.540  -3.627
   11        0.023   0.036   3.362   3.421
   12       -0.029  -0.054  -3.430  -3.512
   13        0.027   0.024   3.353   3.405
   14        0.029   0.013   3.454   3.496
   15       -0.009   0.055   0.003   0.049
   16       -0.002   0.063  -0.006   0.055
--------------------------------------------------
tot         -0.057   0.058  -0.226  -0.225

    CHARGE:  cpu time    0.7794: real time    0.7803
    FORLOC:  cpu time    0.0072: real time    0.0072
    FORNL :  cpu time    5.4222: real time    5.4313
    STRESS:  cpu time   16.8534: real time   16.8647
    FORCOR:  cpu time    0.1010: real time    0.1010
    FORHAR:  cpu time    0.0162: real time    0.0162
    MIXING:  cpu time    0.0017: real time    0.0017
    OFIELD:  cpu time    0.0000: real time    0.0000

  FORCE on cell =-STRESS in cart. coord.  units (eV):
  Direction    XX          YY          ZZ          XY          YZ          ZX
  --------------------------------------------------------------------------------------
  Alpha Z   532.98518   532.98518   532.98518
  Ewald   -2976.51783 -2976.51783 -3340.22308     0.00000    -0.00000    -0.00000
  Hartree  1090.64890  1090.64890   753.94490    -0.00000    -0.00000    -0.00000
  E(xc)    -670.69053  -670.69053  -670.93815     0.00000    -0.00000     0.00000
  Local    -471.85046  -471.85046   226.98236     0.00000    -0.00000     0.00000
  n-local  -149.33303  -145.62748  -146.81377    -0.31849    -0.94993     0.26498
  augment  1578.78452  1578.78452  1580.28549    -0.00000    -0.00000    -0.00000
  Kinetic  1053.91677  1071.51615  1064.72036     1.02915     0.77712     1.35951
  Fock        0.00000     0.00000     0.00000     0.00000     0.00000     0.00000
  -------------------------------------------------------------------------------------
  Total      -1.40402    -1.40402     0.94329     0.00000     0.00000     0.00000
  in kB     -10.65494   -10.65494     7.15854     0.00000     0.00000     0.00000
  external pressure =       -4.72 kB  Pullay stress =        0.00 kB


 VOLUME and BASIS-vectors are now :
 -----------------------------------------------------------------------------
  energy-cutoff  :      550.00
  volume of cell :      211.12
      direct lattice vectors                 reciprocal lattice vectors
     5.954483191  0.000000000  0.000000000     0.167940687  0.000000000  0.000000000
     0.000000000  5.954483191  0.000000000     0.000000000  0.167940687  0.000000000
     0.000000000  0.000000000  5.954483191     0.000000000  0.000000000  0.167940687

  length of vectors
     5.954483191  5.954483191  5.954483191     0.167940687  0.167940687  0.167940687


 FORCES acting on ions
    electron-ion (+dipol)            ewald-force                    non-local-force                 convergence-correction
 -----------------------------------------------------------------------------------------------
   -.557E+01 0.557E+01 0.178E+03   0.557E+01 -.557E+01 -.175E+03   0.180E-01 -.180E-01 -.260E+01   -.192E-01 0.192E-01 -.613E-02
   0.557E+01 0.557E+01 0.178E+03   -.557E+01 -.557E+01 -.175E+03   -.180E-01 -.180E-01 -.260E+01   0.192E-01 0.192E-01 -.613E-02
   -.557E+01 -.557E+01 0.178E+03   0.557E+01 0.557E+01 -.175E+03   0.180E-01 0.180E-01 -.260E+01   -.192E-01 -.192E-01 -.613E-02
   0.557E+01 -.557E+01 0.178E+03   -.557E+01 0.557E+01 -.175E+03   -.180E-01 0.180E-01 -.260E+01   0.192E-01 -.192E-01 -.613E-02
   -.557E+01 0.557E+01 -.178E+03   0.557E+01 -.557E+01 0.175E+03   0.180E-01 -.180E-01 0.260E+01   -.192E-01 0.192E-01 0.613E-02
   0.557E+01 0.557E+01 -.178E+03   -.557E+01 -.557E+01 0.175E+03   -.180E-01 -.180E-01 0.260E+01   0.192E-01 0.192E-01 0.613E-02
   -.557E+01 -.557E+01 -.178E+03   0.557E+01 0.557E+01 0.175E+03   0.180E-01 0.180E-01 0.260E+01   -.192E-01 -.192E-01 0.613E-02
   0.557E+01 -.557E+01 -.178E+03   -.557E+01 0.557E+01 0.175E+03   -.180E-01 0.180E-01 0.260E+01   0.192E-01 -.192E-01 0.613E-02
   0.236E-12 0.341E-13 -.650E-12   -.171E-13 0.122E-13 0.184E-13   0.000E+00 0.000E+00 0.000E+00   0.803E-12 -.126E-12 -.319E-12
   -.614E-13 0.211E-12 -.729E-13   -.836E-13 -.559E-13 0.255E-13   0.000E+00 0.000E+00 0.000E+00   0.134E-11 0.235E-12 -.120E-13
   -.880E-13 -.170E-13 0.191E-12   0.107E-12 0.254E-13 0.594E-13   0.000E+00 0.000E+00 0.000E+00   -.111E-11 0.210E-12 -.210E-12
   0.231E-12 -.411E-14 0.158E-11   -.677E-13 -.727E-13 0.849E-15   0.000E+00 0.000E+00 0.000E+00   0.112E-11 0.198E-12 -.228E-12
   0.227E-12 0.206E-12 0.936E-12   0.102E-13 -.130E-13 0.453E-13   0.000E+00 0.000E+00 0.000E+00   -.789E-12 -.119E-12 -.532E-12
   -.848E-13 0.206E-12 0.187E-12   0.291E-13 -.400E-13 -.132E-13   0.000E+00 0.000E+00 0.000E+00   0.833E-12 -.118E-12 -.524E-12
   -.522E-13 -.346E-14 -.179E-13   0.530E-16 -.683E-14 0.173E-13   0.000E+00 0.000E+00 0.000E+00   -.174E-12 -.455E-13 -.654E-13
   -.113E-13 -.485E-12 -.781E-14   -.274E-13 -.128E-13 0.311E-14   0.000E+00 0.000E+00 0.000E+00   -.257E-12 0.618E-13 0.309E-13
 -----------------------------------------------------------------------------------------------
   0.870E-11 0.780E-11 -.330E-10   0.211E-13 -.357E-13 0.185E-12   0.347E-17 0.139E-16 0.133E-14   0.158E-11 -.129E-11 0.149E-10


 POSITION                                       TOTAL-FORCE (eV/Angst)
 -----------------------------------------------------------------------------------
      1.48278      1.49446      1.59886        -0.002519      0.002519     -0.001315
      4.47170      1.49446      1.59886         0.002519      0.002519     -0.001315
      1.48278      4.46002      1.59886        -0.002519     -0.002519     -0.001315
      4.47170      4.46002      1.59886         0.002519     -0.002519     -0.001315
      1.48278      1.49446      4.35562        -0.002519      0.002519      0.001315
      4.47170      1.49446      4.35562         0.002519      0.002519      0.001315
      1.48278      4.46002      4.35562        -0.002519     -0.002519      0.001315
      4.47170      4.46002      4.35562         0.002519     -0.002519      0.001315
      2.97724      0.00000      0.00000        -0.000000      0.000000      0.000000
      0.00000      2.97724      0.00000        -0.000000      0.000000      0.000000
      0.00000      0.00000      2.97724        -0.000000      0.000000      0.000000
      2.97724      0.00000      2.97724        -0.000000      0.000000      0.000000
      2.97724      2.97724      2.97724        -0.000000      0.000000      0.000000
      0.00000      2.97724      2.97724        -0.000000      0.000000      0.000000
      0.00000      0.00000      0.00000        -0.000000      0.000000      0.000000
      2.97724      2.97724      0.00000        -0.000000      0.000000      0.000000
 -----------------------------------------------------------------------------------
    total drift:                                0.000000      0.000000     -0.000000


--------------------------------------------------------------------------------------------------------



  FREE ENERGIE OF THE ION-ELECTRON SYSTEM (eV)
  ---------------------------------------------------
  free  energy   TOTEN  =      -103.28867817 eV

  energy  without entropy=     -103.28690939  energy(sigma->0) =     -103.28779378

 d Force = 0.1167510E-03[ 0.491E-04, 0.184E-03]  d Energy = 0.1524651E-03-0.357E-04
 d Force =-0.3215323E+00[-0.334E+00,-0.309E+00]  d Ewald  =-0.3215322E+00-0.119E-06


--------------------------------------------------------------------------------------------------------


    POTLOK:  cpu time    0.1356: real time    0.1358


--------------------------------------------------------------------------------------------------------




--------------------------------------------------------------------------------------------------------


  
 reached required accuracy - stopping structural energy minimisation
     LOOP+:  cpu time  119.7664: real time  122.4754
    4ORBIT:  cpu time    0.0000: real time    0.0000



 total charge     

# of ion       s       p       d       tot
------------------------------------------
    1        0.474   0.426   8.377   9.277
    2        0.472   0.427   8.398   9.298
    3        0.473   0.424   8.380   9.277
    4        0.473   0.426   8.378   9.277
    5        0.473   0.426   8.378   9.277
    6        0.473   0.424   8.380   9.277
    7        0.472   0.427   8.398   9.298
    8        0.474   0.426   8.377   9.277
    9        0.311   0.290   4.938   5.539
   10        0.317   0.304   4.917   5.538
   11        0.341   0.346   4.984   5.671
   12        0.349   0.348   4.906   5.604
   13        0.340   0.345   4.934   5.620
   14        0.348   0.340   4.952   5.641
   15        1.251   1.731   0.306   3.288
   16        1.246   1.742   0.305   3.292
--------------------------------------------------
tot          8.288   8.850  97.310 114.448



 magnetization (x)

# of ion       s       p       d       tot
------------------------------------------
    1       -0.004  -0.004   0.010   0.002
    2       -0.003  -0.001   0.029   0.025
    3       -0.003   0.003   0.036   0.036
    4       -0.003  -0.003   0.029   0.023
    5       -0.003  -0.003   0.029   0.023
    6       -0.003   0.003   0.036   0.036
    7       -0.003  -0.001   0.029   0.025
    8       -0.004  -0.004   0.010   0.002
    9       -0.033  -0.018  -3.629  -3.680
   10       -0.034  -0.053  -3.540  -3.627
   11        0.023   0.036   3.362   3.421
   12       -0.029  -0.054  -3.430  -3.512
   13        0.027   0.024   3.353   3.405
   14        0.029   0.013   3.454   3.496
   15       -0.009   0.055   0.003   0.049
   16       -0.002   0.063  -0.006   0.055
--------------------------------------------------
tot         -0.057   0.058  -0.226  -0.225


 total amount of memory used by VASP MPI-rank0   103307. kBytes
=======================================================================

   base      :      30000. kBytes
   nonlr-proj:       6800. kBytes
   fftplans  :       1269. kBytes
   grid      :       6573. kBytes
   one-center:        497. kBytes
   wavefun   :      58168. kBytes

  
  
 General timing and accounting informations for this job:
 ========================================================
  
                  Total CPU time used (sec):      764.159
                            User time (sec):      732.747
                          System time (sec):       31.411
                         Elapsed time (sec):      795.974
  
                   Maximum memory used (kb):      141504.
                   Average memory used (kb):           0.
  
                          Minor page faults:     14409531
                          Major page faults:           17
                 Voluntary context switches:         2105
