 vasp.5.4.4.18Apr17-6-g9f103f2a35 (build May 21 2018 20:56:50) complex           
 executed on             LinuxGNU date 2021.10.15  15:49:47
 running on   12 total cores
 distrk:  each k-point on   12 cores,    1 groups
 distr:  one band on NCORES_PER_BAND=   1 cores,   12 groups


--------------------------------------------------------------------------------------------------------


 INCAR:
 POTCAR:    PAW_PBE Ni 02Aug2007                  
 POTCAR:    PAW_PBE Mn 06Sep2000                  
 POTCAR:    PAW_PBE In 08Apr2002                  

 ----------------------------------------------------------------------------- 
|                                                                             |
|           W    W    AA    RRRRR   N    N  II  N    N   GGGG   !!!           |
|           W    W   A  A   R    R  NN   N  II  NN   N  G    G  !!!           |
|           W    W  A    A  R    R  N N  N  II  N N  N  G       !!!           |
|           W WW W  AAAAAA  RRRRR   N  N N  II  N  N N  G  GGG   !            |
|           WW  WW  A    A  R   R   N   NN  II  N   NN  G    G                |
|           W    W  A    A  R    R  N    N  II  N    N   GGGG   !!!           |
|                                                                             |
|      For optimal performance we recommend to set                            |
|        NCORE= 4 - approx SQRT( number of cores)                             |
|      NCORE specifies how many cores store one orbital (NPAR=cpu/NCORE).     |
|      This setting can  greatly improve the performance of VASP for DFT.     |
|      The default,   NCORE=1            might be grossly inefficient         |
|      on modern multi-core architectures or massively parallel machines.     |
|      Do your own testing !!!!                                               |
|      Unfortunately you need to use the default for GW and RPA calculations. |
|      (for HF NCORE is supported but not extensively tested yet)             |
|                                                                             |
 ----------------------------------------------------------------------------- 

 POTCAR:    PAW_PBE Ni 02Aug2007                  
   VRHFIN =Ni:                                                                  
   LEXCH  = PE                                                                  
   EATOM  =  1077.6739 eV,   79.2068 Ry                                         
                                                                                
   TITEL  = PAW_PBE Ni 02Aug2007                                                
   LULTRA =        F    use ultrasoft PP ?                                      
   IUNSCR =        1    unscreen: 0-lin 1-nonlin 2-no                           
   RPACOR =    2.000    partial core radius                                     
   POMASS =   58.690; ZVAL   =   10.000    mass and valenz                      
   RCORE  =    2.300    outmost cutoff radius                                   
   RWIGS  =    2.430; RWIGS  =    1.286    wigner-seitz radius (au A)           
   ENMAX  =  269.532; ENMIN  =  202.149 eV                                      
   RCLOC  =    1.201    cutoff for local pot                                    
   LCOR   =        T    correct aug charges                                     
   LPAW   =        T    paw PP                                                  
   EAUG   =  544.565                                                            
   DEXC   =    0.000                                                            
   RMAX   =    2.357    core radius for proj-oper                               
   RAUG   =    1.300    factor for augmentation sphere                          
   RDEP   =    2.390    radius for radial grids                                 
   RDEPT  =    1.838    core radius for aug-charge                              
                                                                                
   Atomic configuration                                                         
    9 entries                                                                   
     n  l   j            E        occ.                                          
     1  0  0.50     -8206.4253   2.0000                                         
     2  0  0.50      -976.1748   2.0000                                         
     2  1  1.50      -839.0571   6.0000                                         
     3  0  0.50      -105.9991   2.0000                                         
     3  1  1.50       -66.4603   6.0000                                         
     3  2  2.50        -4.6458   9.0000                                         
     4  0  0.50        -4.4926   1.0000                                         
     4  1  1.50        -4.0817   0.0000                                         
     4  3  2.50        -1.3606   0.0000                                         
   Description                                                                  
     l       E           TYP  RCUT    TYP  RCUT                                 
     2     -4.6457903     23  2.300                                             
     2     -6.0063729     23  2.300                                             
     0     -4.4925590     23  2.300                                             
     0      5.0102601     23  2.300                                             
     1     -2.7211652     23  2.300                                             
     1     16.5183231     23  2.300                                             
  local pseudopotential read in
  partial core-charges read in
  partial kinetic energy density read in
  atomic valenz-charges read in
  non local Contribution for L=           2  read in
    real space projection operators read in
  non local Contribution for L=           2  read in
    real space projection operators read in
  non local Contribution for L=           0  read in
    real space projection operators read in
  non local Contribution for L=           0  read in
    real space projection operators read in
  non local Contribution for L=           1  read in
    real space projection operators read in
  non local Contribution for L=           1  read in
    real space projection operators read in
    PAW grid and wavefunctions read in

   number of l-projection  operators is LMAX  =           6
   number of lm-projection operators is LMMAX =          18

 POTCAR:    PAW_PBE Mn 06Sep2000                  
   VRHFIN =Mn: d6 s1                                                            
   LEXCH  = PE                                                                  
   EATOM  =   416.7541 eV,   30.6306 Ry                                         
                                                                                
   TITEL  = PAW_PBE Mn 06Sep2000                                                
   LULTRA =        F    use ultrasoft PP ?                                      
   IUNSCR =        1    unscreen: 0-lin 1-nonlin 2-no                           
   RPACOR =    2.000    partial core radius                                     
   POMASS =   54.938; ZVAL   =    7.000    mass and valenz                      
   RCORE  =    2.300    outmost cutoff radius                                   
   RWIGS  =    2.500; RWIGS  =    1.323    wigner-seitz radius (au A)           
   ENMAX  =  269.864; ENMIN  =  202.398 eV                                      
   RCLOC  =    1.725    cutoff for local pot                                    
   LCOR   =        T    correct aug charges                                     
   LPAW   =        T    paw PP                                                  
   EAUG   =  500.711                                                            
   DEXC   =    0.000                                                            
   RMAX   =    2.343    core radius for proj-oper                               
   RAUG   =    1.300    factor for augmentation sphere                          
   RDEP   =    2.338    radius for radial grids                                 
   RDEPT  =    1.911    core radius for aug-charge                              
                                                                                
   Atomic configuration                                                         
    9 entries                                                                   
     n  l   j            E        occ.                                          
     1  0  0.50     -6424.8288   2.0000                                         
     2  0  0.50      -739.1154   2.0000                                         
     2  1  1.50      -625.3949   6.0000                                         
     3  0  0.50       -81.6100   2.0000                                         
     3  1  1.50       -50.4667   6.0000                                         
     3  2  2.50        -3.3745   6.0000                                         
     4  0  0.50        -4.1331   1.0000                                         
     4  1  0.50        -4.0817   0.0000                                         
     4  3  2.50        -1.3606   0.0000                                         
   Description                                                                  
     l       E           TYP  RCUT    TYP  RCUT                                 
     2     -3.3744664     23  2.300                                             
     2     -4.7350490     23  2.300                                             
     0     -4.1331408     23  2.300                                             
     0      7.6656614     23  2.300                                             
     1     -2.7211652     23  2.300                                             
     1     20.4087390     23  2.300                                             
  local pseudopotential read in
  partial core-charges read in
  partial kinetic energy density read in
  atomic valenz-charges read in
  non local Contribution for L=           2  read in
    real space projection operators read in
  non local Contribution for L=           2  read in
    real space projection operators read in
  non local Contribution for L=           0  read in
    real space projection operators read in
  non local Contribution for L=           0  read in
    real space projection operators read in
  non local Contribution for L=           1  read in
    real space projection operators read in
  non local Contribution for L=           1  read in
    real space projection operators read in
    PAW grid and wavefunctions read in

   number of l-projection  operators is LMAX  =           6
   number of lm-projection operators is LMMAX =          18

 POTCAR:    PAW_PBE In 08Apr2002                  
   VRHFIN =In: s2p1                                                             
   LEXCH  = PE                                                                  
   EATOM  =    53.7908 eV,    3.9535 Ry                                         
                                                                                
   TITEL  = PAW_PBE In 08Apr2002                                                
   LULTRA =        F    use ultrasoft PP ?                                      
   IUNSCR =        1    unscreen: 0-lin 1-nonlin 2-no                           
   RPACOR =    2.400    partial core radius                                     
   POMASS =  114.820; ZVAL   =    3.000    mass and valenz                      
   RCORE  =    3.100    outmost cutoff radius                                   
   RWIGS  =    3.170; RWIGS  =    1.677    wigner-seitz radius (au A)           
   ENMAX  =   95.934; ENMIN  =   71.951 eV                                      
   ICORE  =        3    local potential                                         
   LCOR   =        T    correct aug charges                                     
   LPAW   =        T    paw PP                                                  
   EAUG   =  237.125                                                            
   DEXC   =    0.000                                                            
   RMAX   =    3.168    core radius for proj-oper                               
   RAUG   =    1.300    factor for augmentation sphere                          
   RDEP   =    3.187    radius for radial grids                                 
   RDEPT  =    2.711    core radius for aug-charge                              
                                                                                
   Atomic configuration                                                         
   13 entries                                                                   
     n  l   j            E        occ.                                          
     1  0  0.50    -27747.9169   2.0000                                         
     2  0  0.50     -4154.4438   2.0000                                         
     2  1  1.50     -3728.4305   6.0000                                         
     3  0  0.50      -788.3680   2.0000                                         
     3  1  1.50      -648.9215   6.0000                                         
     3  2  2.50      -432.5893  10.0000                                         
     4  0  0.50      -119.6363   2.0000                                         
     4  1  1.50       -78.1086   6.0000                                         
     4  2  2.50       -18.6227  10.0000                                         
     5  0  0.50        -8.2107   2.0000                                         
     5  1  0.50        -2.5185   1.0000                                         
     5  2  2.50        -1.3606   0.0000                                         
     4  3  2.50        -2.7212   0.0000                                         
   Description                                                                  
     l       E           TYP  RCUT    TYP  RCUT                                 
     0     -8.2107306     23  3.100                                             
     0     -6.1485975     23  3.100                                             
     1     -2.5184867     23  3.100                                             
     1      3.2427302     23  3.100                                             
     2     -1.3605826     23  3.100                                             
     3     -1.3605826     23  3.100                                             
  local pseudopotential read in
  partial core-charges read in
  partial kinetic energy density read in
  atomic valenz-charges read in
  non local Contribution for L=           0  read in
    real space projection operators read in
  non local Contribution for L=           0  read in
    real space projection operators read in
  non local Contribution for L=           1  read in
    real space projection operators read in
  non local Contribution for L=           1  read in
    real space projection operators read in
  non local Contribution for L=           2  read in
    real space projection operators read in
    PAW grid and wavefunctions read in

   number of l-projection  operators is LMAX  =           5
   number of lm-projection operators is LMMAX =          13

 Optimization of the real space projectors (new method)

 maximal supplied QI-value         = 16.25
 optimisation between [QCUT,QGAM] = [ 11.86, 23.89] = [ 39.41,159.82] Ry 
 Optimized for a Real-space Cutoff    1.33 Angstroem

   l    n(q)    QCUT    max X(q) W(low)/X(q) W(high)/X(q)  e(spline) 
   2      9    11.864    60.317    0.21E-03    0.51E-03    0.25E-06
   2      9    11.864    55.921    0.21E-03    0.51E-03    0.26E-06
   0      9    11.864    51.690    0.22E-03    0.30E-04    0.17E-06
   0      9    11.864    30.015    0.20E-03    0.28E-04    0.15E-06
   1      9    11.864    18.849    0.76E-04    0.33E-03    0.17E-06
   1      9    11.864    14.624    0.60E-04    0.28E-03    0.15E-06
 Optimization of the real space projectors (new method)

 maximal supplied QI-value         = 16.25
 optimisation between [QCUT,QGAM] = [ 11.86, 23.89] = [ 39.41,159.82] Ry 
 Optimized for a Real-space Cutoff    1.36 Angstroem

   l    n(q)    QCUT    max X(q) W(low)/X(q) W(high)/X(q)  e(spline) 
   2      9    11.864   110.144    0.49E-03    0.50E-03    0.21E-06
   2      9    11.864   103.200    0.49E-03    0.51E-03    0.22E-06
   0     10    11.864    68.437    0.12E-03    0.41E-04    0.21E-06
   0     10    11.864    33.971    0.11E-03    0.36E-04    0.19E-06
   1      9    11.864    17.065    0.24E-03    0.26E-03    0.93E-07
   1      9    11.864    12.540    0.19E-03    0.20E-03    0.80E-07
 Optimization of the real space projectors (new method)

 maximal supplied QI-value         = 12.09
 optimisation between [QCUT,QGAM] = [ 11.97, 23.95] = [ 40.14,160.58] Ry 
 Optimized for a Real-space Cutoff    1.63 Angstroem

   l    n(q)    QCUT    max X(q) W(low)/X(q) W(high)/X(q)  e(spline) 
   0     12    11.973   106.980    0.33E-03    0.16E-03    0.25E-05
   0     12    11.973    81.086    0.37E-03    0.18E-03    0.28E-05
   1     11    11.973    53.097    0.22E-03    0.42E-03    0.40E-05
   1     11    11.973    32.621    0.20E-03    0.40E-03    0.37E-05
   2     11    11.973     8.820    0.30E-03    0.17E-03    0.41E-06
  PAW_PBE Ni 02Aug2007                  :
 energy of atom  1       EATOM=-1077.6739
 kinetic energy error for atom=    0.0027 (will be added to EATOM!!)
  PAW_PBE Mn 06Sep2000                  :
 energy of atom  2       EATOM= -416.7541
 kinetic energy error for atom=    0.0022 (will be added to EATOM!!)
  PAW_PBE In 08Apr2002                  :
 energy of atom  3       EATOM=  -53.7908
 kinetic energy error for atom=    0.0000 (will be added to EATOM!!)


 POSCAR: Ni2MnIn                                 
  positions in direct lattice
  velocities in cartesian coordinates
 exchange correlation table for  LEXCH =        8
   RHO(1)=    0.500       N(1)  =     2000
   RHO(2)=  100.500       N(2)  =     4000



--------------------------------------------------------------------------------------------------------


 ion  position               nearest neighbor table
   1  0.250  0.250  0.250-   9 2.58  10 2.58  11 2.58  12 2.58  13 2.58  14 2.58  15 2.58  16 2.58
                             5 2.98   2 2.98   3 2.98   5 2.98   3 2.98   2 2.98
   2  0.750  0.250  0.250-   9 2.58  10 2.58  11 2.58  12 2.58  13 2.58  14 2.58  15 2.58  16 2.58
                             6 2.98   1 2.98   4 2.98   6 2.98   4 2.98   1 2.98
   3  0.250  0.750  0.250-   9 2.58  10 2.58  11 2.58  12 2.58  13 2.58  14 2.58  15 2.58  16 2.58
                             7 2.98   1 2.98   4 2.98   7 2.98   1 2.98   4 2.98
   4  0.750  0.750  0.250-   9 2.58  10 2.58  11 2.58  12 2.58  13 2.58  14 2.58  15 2.58  16 2.58
                             8 2.98   2 2.98   3 2.98   8 2.98   2 2.98   3 2.98
   5  0.250  0.250  0.750-   9 2.58  10 2.58  11 2.58  12 2.58  13 2.58  14 2.58  15 2.58  16 2.58
                             7 2.98   1 2.98   6 2.98   1 2.98   7 2.98   6 2.98
   6  0.750  0.250  0.750-   9 2.58  10 2.58  11 2.58  12 2.58  13 2.58  14 2.58  15 2.58  16 2.58
                             8 2.98   2 2.98   5 2.98   2 2.98   8 2.98   5 2.98
   7  0.250  0.750  0.750-   9 2.58  10 2.58  11 2.58  12 2.58  13 2.58  14 2.58  15 2.58  16 2.58
                             8 2.98   3 2.98   5 2.98   3 2.98   5 2.98   8 2.98
   8  0.750  0.750  0.750-   9 2.58  10 2.58  11 2.58  12 2.58  13 2.58  14 2.58  15 2.58  16 2.58
                             7 2.98   4 2.98   6 2.98   4 2.98   6 2.98   7 2.98
   9  0.500  0.000  0.000-   1 2.58   2 2.58   3 2.58   4 2.58   5 2.58   6 2.58   7 2.58   8 2.58
                            10 2.98  13 2.98  15 2.98  13 2.98  10 2.98  15 2.98
  10  0.500  0.500  0.000-   1 2.58   2 2.58   3 2.58   4 2.58   5 2.58   6 2.58   7 2.58   8 2.58
                             9 2.98  11 2.98  16 2.98  16 2.98   9 2.98  11 2.98
  11  0.000  0.500  0.000-   1 2.58   2 2.58   3 2.58   4 2.58   5 2.58   6 2.58   7 2.58   8 2.58
                            10 2.98  14 2.98  15 2.98  14 2.98  15 2.98  10 2.98
  12  0.000  0.000  0.500-   1 2.58   2 2.58   3 2.58   4 2.58   5 2.58   6 2.58   7 2.58   8 2.58
                            13 2.98  14 2.98  15 2.98  15 2.98  14 2.98  13 2.98
  13  0.500  0.000  0.500-   1 2.58   2 2.58   3 2.58   4 2.58   5 2.58   6 2.58   7 2.58   8 2.58
                             9 2.98  12 2.98  16 2.98   9 2.98  16 2.98  12 2.98
  14  0.000  0.500  0.500-   1 2.58   2 2.58   3 2.58   4 2.58   5 2.58   6 2.58   7 2.58   8 2.58
                            11 2.98  12 2.98  16 2.98  11 2.98  12 2.98  16 2.98
  15  0.000  0.000  0.000-   1 2.58   2 2.58   3 2.58   4 2.58   5 2.58   6 2.58   7 2.58   8 2.58
                             9 2.98  11 2.98  12 2.98  12 2.98  11 2.98   9 2.98
  16  0.500  0.500  0.500-   1 2.58   2 2.58   3 2.58   4 2.58   5 2.58   6 2.58   7 2.58   8 2.58
                            10 2.98  13 2.98  14 2.98  10 2.98  13 2.98  14 2.98

  LATTYP: Found a simple cubic cell.
 ALAT       =     5.9602493897
  
  Lattice vectors:
  
 A1 = (   5.9602493897,   0.0000000000,   0.0000000000)
 A2 = (   0.0000000000,   5.9602493897,   0.0000000000)
 A3 = (   0.0000000000,   0.0000000000,   5.9602493897)


Analysis of symmetry for initial positions (statically):
=====================================================================
 Subroutine PRICEL returns following result:
 
  LATTYP: Found a body centered cubic cell.
 ALAT       =     5.9602493897
  
  Lattice vectors:
  
 A1 = (   2.9801246948,   2.9801246948,   2.9801246948)
 A2 = (   2.9801246948,  -2.9801246948,  -2.9801246948)
 A3 = (  -2.9801246948,   2.9801246948,  -2.9801246948)
 
   2 primitive cells build up your supercell.
 

 Routine SETGRP: Setting up the symmetry group for a 
 simple cubic supercell.


 Subroutine GETGRP returns: Found 48 space group operations
 (whereof 48 operations were pure point group operations)
 out of a pool of 48 trial point group operations.


The static configuration has the point symmetry O_h .


Analysis of symmetry for dynamics (positions and initial velocities):
=====================================================================
 Subroutine PRICEL returns following result:
 
  LATTYP: Found a body centered cubic cell.
 ALAT       =     5.9602493897
  
  Lattice vectors:
  
 A1 = (   2.9801246948,   2.9801246948,   2.9801246948)
 A2 = (   2.9801246948,  -2.9801246948,  -2.9801246948)
 A3 = (  -2.9801246948,   2.9801246948,  -2.9801246948)
 
   2 primitive cells build up your supercell.
 

 Routine SETGRP: Setting up the symmetry group for a 
 simple cubic supercell.


 Subroutine GETGRP returns: Found 48 space group operations
 (whereof 48 operations were pure point group operations)
 out of a pool of 48 trial point group operations.


The dynamic configuration has the point symmetry O_h .


Analysis of structural, dynamic, and magnetic symmetry:
=====================================================================
 Subroutine PRICEL returns following result:
 
  LATTYP: Found a body centered cubic cell.
 ALAT       =     5.9602493897
  
  Lattice vectors:
  
 A1 = (   2.9801246948,   2.9801246948,   2.9801246948)
 A2 = (   2.9801246948,  -2.9801246948,  -2.9801246948)
 A3 = (  -2.9801246948,   2.9801246948,  -2.9801246948)
 
   2 primitive cells build up your supercell.
 

 Routine SETGRP: Setting up the symmetry group for a 
 simple cubic supercell.


 Subroutine GETGRP returns: Found 16 space group operations
 (whereof 16 operations were pure point group operations)
 out of a pool of 48 trial point group operations.


The magnetic configuration has the point symmetry D_4h.


 Subroutine INISYM returns: Found 16 space group operations
 (whereof 16 operations are pure point group operations),
 and found     2 'primitive' translations



 KPOINTS: k-points                                

Automatic generation of k-mesh.
Space group operators:
 irot       det(A)        alpha          n_x          n_y          n_z        tau_x        tau_y        tau_z
    1     1.000000     0.000000     1.000000     0.000000     0.000000     0.000000     0.000000    -0.000000
    2    -1.000000     0.000000     1.000000     0.000000     0.000000     0.000000     0.000000    -0.000000
    3     1.000000   180.000000     0.000000     0.707107     0.707107     0.000000     0.000000    -0.000000
    4    -1.000000   180.000000     0.000000     0.707107     0.707107     0.000000     0.000000    -0.000000
    5     1.000000   180.000000     0.000000     0.000000     1.000000     0.000000     0.000000    -0.000000
    6    -1.000000   180.000000     0.000000     0.000000     1.000000     0.000000     0.000000    -0.000000
    7     1.000000    90.000000    -1.000000     0.000000     0.000000     0.000000     0.000000    -0.000000
    8    -1.000000    90.000000    -1.000000     0.000000     0.000000     0.000000     0.000000    -0.000000
    9     1.000000   180.000000     1.000000     0.000000     0.000000     0.000000     0.000000    -0.000000
   10    -1.000000   180.000000     1.000000     0.000000     0.000000     0.000000     0.000000    -0.000000
   11     1.000000    90.000000     1.000000     0.000000     0.000000     0.000000     0.000000    -0.000000
   12    -1.000000    90.000000     1.000000     0.000000     0.000000     0.000000     0.000000    -0.000000
   13     1.000000   180.000000     0.000000     1.000000     0.000000     0.000000     0.000000    -0.000000
   14    -1.000000   180.000000     0.000000     1.000000     0.000000     0.000000     0.000000    -0.000000
   15     1.000000   180.000000     0.000000    -0.707107     0.707107     0.000000     0.000000    -0.000000
   16    -1.000000   180.000000     0.000000    -0.707107     0.707107     0.000000     0.000000    -0.000000
 
 Subroutine IBZKPT returns following result:
 ===========================================
 
 Found     40 irreducible k-points:
 
 Following reciprocal coordinates:
            Coordinates               Weight
  0.000000  0.000000  0.000000      1.000000
  0.142857  0.000000  0.000000      2.000000
  0.285714  0.000000  0.000000      2.000000
  0.428571  0.000000  0.000000      2.000000
  0.000000  0.142857  0.000000      4.000000
  0.142857  0.142857  0.000000      8.000000
  0.285714  0.142857  0.000000      8.000000
  0.428571  0.142857  0.000000      8.000000
  0.000000  0.285714  0.000000      4.000000
  0.142857  0.285714  0.000000      8.000000
  0.285714  0.285714  0.000000      8.000000
  0.428571  0.285714  0.000000      8.000000
  0.000000  0.428571  0.000000      4.000000
  0.142857  0.428571  0.000000      8.000000
  0.285714  0.428571  0.000000      8.000000
  0.428571  0.428571  0.000000      8.000000
  0.000000  0.142857  0.142857      4.000000
  0.142857  0.142857  0.142857      8.000000
  0.285714  0.142857  0.142857      8.000000
  0.428571  0.142857  0.142857      8.000000
  0.000000  0.285714  0.142857      8.000000
  0.142857  0.285714  0.142857     16.000000
  0.285714  0.285714  0.142857     16.000000
  0.428571  0.285714  0.142857     16.000000
  0.000000  0.428571  0.142857      8.000000
  0.142857  0.428571  0.142857     16.000000
  0.285714  0.428571  0.142857     16.000000
  0.428571  0.428571  0.142857     16.000000
  0.000000  0.285714  0.285714      4.000000
  0.142857  0.285714  0.285714      8.000000
  0.285714  0.285714  0.285714      8.000000
  0.428571  0.285714  0.285714      8.000000
  0.000000  0.428571  0.285714      8.000000
  0.142857  0.428571  0.285714     16.000000
  0.285714  0.428571  0.285714     16.000000
  0.428571  0.428571  0.285714     16.000000
  0.000000  0.428571  0.428571      4.000000
  0.142857  0.428571  0.428571      8.000000
  0.285714  0.428571  0.428571      8.000000
  0.428571  0.428571  0.428571      8.000000
 
 Following cartesian coordinates:
            Coordinates               Weight
  0.000000  0.000000  0.000000      1.000000
  0.138058  0.000000  0.000000      2.000000
  0.276115  0.000000  0.000000      2.000000
  0.414173  0.000000  0.000000      2.000000
  0.000000  0.138058  0.000000      4.000000
  0.138058  0.138058  0.000000      8.000000
  0.276115  0.138058  0.000000      8.000000
  0.414173  0.138058  0.000000      8.000000
  0.000000  0.276115  0.000000      4.000000
  0.138058  0.276115  0.000000      8.000000
  0.276115  0.276115  0.000000      8.000000
  0.414173  0.276115  0.000000      8.000000
  0.000000  0.414173  0.000000      4.000000
  0.138058  0.414173  0.000000      8.000000
  0.276115  0.414173  0.000000      8.000000
  0.414173  0.414173  0.000000      8.000000
  0.000000  0.138058  0.138058      4.000000
  0.138058  0.138058  0.138058      8.000000
  0.276115  0.138058  0.138058      8.000000
  0.414173  0.138058  0.138058      8.000000
  0.000000  0.276115  0.138058      8.000000
  0.138058  0.276115  0.138058     16.000000
  0.276115  0.276115  0.138058     16.000000
  0.414173  0.276115  0.138058     16.000000
  0.000000  0.414173  0.138058      8.000000
  0.138058  0.414173  0.138058     16.000000
  0.276115  0.414173  0.138058     16.000000
  0.414173  0.414173  0.138058     16.000000
  0.000000  0.276115  0.276115      4.000000
  0.138058  0.276115  0.276115      8.000000
  0.276115  0.276115  0.276115      8.000000
  0.414173  0.276115  0.276115      8.000000
  0.000000  0.414173  0.276115      8.000000
  0.138058  0.414173  0.276115     16.000000
  0.276115  0.414173  0.276115     16.000000
  0.414173  0.414173  0.276115     16.000000
  0.000000  0.414173  0.414173      4.000000
  0.138058  0.414173  0.414173      8.000000
  0.276115  0.414173  0.414173      8.000000
  0.414173  0.414173  0.414173      8.000000
 


--------------------------------------------------------------------------------------------------------




 Dimension of arrays:
   k-points           NKPTS =     40   k-points in BZ     NKDIM =     40   number of bands    NBANDS=     84
   number of dos      NEDOS =    301   number of ions     NIONS =     16
   non local maximal  LDIM  =      6   non local SUM 2l+1 LMDIM =     18
   total plane-waves  NPLWV =  46656
   max r-space proj   IRMAX =   4045   max aug-charges    IRDMAX=  25055
   dimension x,y,z NGX =    36 NGY =   36 NGZ =   36
   dimension x,y,z NGXF=    72 NGYF=   72 NGZF=   72
   support grid    NGXF=    72 NGYF=   72 NGZF=   72
   ions per type =               8   6   2
   NGX,Y,Z   is equivalent  to a cutoff of  10.04, 10.04, 10.04 a.u.
   NGXF,Y,Z  is equivalent  to a cutoff of  20.08, 20.08, 20.08 a.u.

 SYSTEM =  Testrun for NiMnIn                      
 POSCAR =  Ni2MnIn                                 

 Startparameter for this run:
   NWRITE =      2    write-flag & timer
   PREC   = normal    normal or accurate (medium, high low for compatibility)
   ISTART =      0    job   : 0-new  1-cont  2-samecut
   ICHARG =      2    charge: 1-file 2-atom 10-const
   ISPIN  =      2    spin polarized calculation?
   LNONCOLLINEAR =      F non collinear calculations
   LSORBIT =      F    spin-orbit coupling
   INIWAV =      1    electr: 0-lowe 1-rand  2-diag
   LASPH  =      F    aspherical Exc in radial PAW
   METAGGA=      F    non-selfconsistent MetaGGA calc.

 Electronic Relaxation 1
   ENCUT  =  550.0 eV  40.42 Ry    6.36 a.u.  11.40 11.40 11.40*2*pi/ulx,y,z
   ENINI  =  550.0     initial cutoff
   ENAUG  =  544.6 eV  augmentation charge cutoff
   NELM   =     60;   NELMIN=  2; NELMDL= -5     # of ELM steps 
   EDIFF  = 0.1E-04   stopping-criterion for ELM
   LREAL  =      T    real-space projection
   NLSPLINE    = F    spline interpolate recip. space projectors
   LCOMPAT=      F    compatible to vasp.4.4
   GGA_COMPAT  = T    GGA compatible to vasp.4.4-vasp.4.6
   LMAXPAW     = -100 max onsite density
   LMAXMIX     =    2 max onsite mixed and CHGCAR
   VOSKOWN=      0    Vosko Wilk Nusair interpolation
   ROPT   =   -0.00050  -0.00050  -0.00050
 Ionic relaxation
   EDIFFG = -.1E-01   stopping-criterion for IOM
   NSW    =   1000    number of steps for IOM
   NBLOCK =      1;   KBLOCK =   1000    inner block; outer block 
   IBRION =      2    ionic relax: 0-MD 1-quasi-New 2-CG
   NFREE  =      1    steps in history (QN), initial steepest desc. (CG)
   ISIF   =      2    stress and relaxation
   IWAVPR =     11    prediction:  0-non 1-charg 2-wave 3-comb
   ISYM   =      2    0-nonsym 1-usesym 2-fastsym
   LCORR  =      T    Harris-Foulkes like correction to forces

   POTIM  = 0.5000    time-step for ionic-motion
   TEIN   =    0.0    initial temperature
   TEBEG  =    0.0;   TEEND  =   0.0 temperature during run
   SMASS  =  -3.00    Nose mass-parameter (am)
   estimated Nose-frequenzy (Omega)   =  0.10E-29 period in steps =****** mass=  -0.812E-27a.u.
   SCALEE = 1.0000    scale energy and forces
   NPACO  =    256;   APACO  = 16.0  distance and # of slots for P.C.
   PSTRESS=    0.0 pullay stress

  Mass of Ions in am
   POMASS =  58.69 54.94114.82
  Ionic Valenz
   ZVAL   =  10.00  7.00  3.00
  Atomic Wigner-Seitz radii
   RWIGS  =  -1.00 -1.00 -1.00
  virtual crystal weights 
   VCA    =   1.00  1.00  1.00
   NELECT =     128.0000    total number of electrons
   NUPDOWN=      -1.0000    fix difference up-down

 DOS related values:
   EMIN   =  10.00;   EMAX   =-10.00  energy-range for DOS
   EFERMI =   0.00
   ISMEAR =     0;   SIGMA  =   0.02  broadening in eV -4-tet -1-fermi 0-gaus

 Electronic relaxation 2 (details)
   IALGO  =     68    algorithm
   LDIAG  =      T    sub-space diagonalisation (order eigenvalues)
   LSUBROT=      F    optimize rotation matrix (better conditioning)
   TURBO    =      0    0=normal 1=particle mesh
   IRESTART =      0    0=no restart 2=restart with 2 vectors
   NREBOOT  =      0    no. of reboots
   NMIN     =      0    reboot dimension
   EREF     =   0.00    reference energy to select bands
   IMIX   =      4    mixing-type and parameters
     AMIX     =   0.40;   BMIX     =  1.00
     AMIX_MAG =   1.60;   BMIX_MAG =  1.00
     AMIN     =   0.10
     WC   =   100.;   INIMIX=   1;  MIXPRE=   1;  MAXMIX= -45

 Intra band minimization:
   WEIMIN = 0.0010     energy-eigenvalue tresh-hold
   EBREAK =  0.30E-07  absolut break condition
   DEPER  =   0.30     relativ break condition  

   TIME   =   0.40     timestep for ELM

  volume/ion in A,a.u.               =      13.23        89.30
  Fermi-wavevector in a.u.,A,eV,Ry     =   1.384247  2.615848 26.070680  1.916141
  Thomas-Fermi vector in A             =   2.508769

 Write flags
   LWAVE        =      F    write WAVECAR
   LDOWNSAMPLE  =      F    k-point downsampling of WAVECAR
   LCHARG       =      T    write CHGCAR
   LVTOT        =      F    write LOCPOT, total local potential
   LVHAR        =      F    write LOCPOT, Hartree potential only
   LELF         =      F    write electronic localiz. function (ELF)
   LORBIT       =     11    0 simple, 1 ext, 2 COOP (PROOUT), +10 PAW based schemes


 Dipole corrections
   LMONO  =      F    monopole corrections only (constant potential shift)
   LDIPOL =      F    correct potential (dipole corrections)
   IDIPOL =      0    1-x, 2-y, 3-z, 4-all directions 
   EPSILON=  1.0000000 bulk dielectric constant

 Exchange correlation treatment:
   GGA     =    --    GGA type
   LEXCH   =     8    internal setting for exchange type
   VOSKOWN=      0    Vosko Wilk Nusair interpolation
   LHFCALC =     F    Hartree Fock is set to
   LHFONE  =     F    Hartree Fock one center treatment
   AEXX    =    0.0000 exact exchange contribution

 Linear response parameters
   LEPSILON=     F    determine dielectric tensor
   LRPA    =     F    only Hartree local field effects (RPA)
   LNABLA  =     F    use nabla operator in PAW spheres
   LVEL    =     F    velocity operator in full k-point grid
   LINTERFAST=   F  fast interpolation
   KINTER  =     0    interpolate to denser k-point grid
   CSHIFT  =0.1000    complex shift for real part using Kramers Kronig
   OMEGAMAX=  -1.0    maximum frequency
   DEG_THRESHOLD= 0.2000000E-02 threshold for treating states as degnerate
   RTIME   =   -0.100 relaxation time in fs
  (WPLASMAI=    0.000 imaginary part of plasma frequency in eV, 0.658/RTIME)
   DFIELD  = 0.0000000 0.0000000 0.0000000 field for delta impulse in time

 Orbital magnetization related:
   ORBITALMAG=     F  switch on orbital magnetization
   LCHIMAG   =     F  perturbation theory with respect to B field
   DQ        =  0.001000  dq finite difference perturbation B field
   LLRAUG    =     F  two centre corrections for induced B field



--------------------------------------------------------------------------------------------------------


 conjugate gradient relaxation of ions
 charge density and potential will be updated during run
 spin polarized calculation
 RMM-DIIS sequential band-by-band and
  variant of blocked Davidson during initial phase
 perform sub-space diagonalisation
    before iterative eigenvector-optimisation
 modified Broyden-mixing scheme, WC =      100.0
 initial mixing is a Kerker type mixing with AMIX =  0.4000 and BMIX =      1.0000
 Hartree-type preconditioning will be used
 using additional bands           20
 real space projection scheme for non local part
 use partial core corrections
 calculate Harris-corrections to forces   (improved forces if not selfconsistent)
 use gradient corrections 
 use of overlap-Matrix (Vanderbilt PP)
 Gauss-broadening in eV      SIGMA  =   0.02


--------------------------------------------------------------------------------------------------------


  energy-cutoff  :      550.00
  volume of cell :      211.74
      direct lattice vectors                 reciprocal lattice vectors
     5.960249390  0.000000000  0.000000000     0.167778214  0.000000000  0.000000000
     0.000000000  5.960249390  0.000000000     0.000000000  0.167778214  0.000000000
     0.000000000  0.000000000  5.960249390     0.000000000  0.000000000  0.167778214

  length of vectors
     5.960249390  5.960249390  5.960249390     0.167778214  0.167778214  0.167778214



 k-points in units of 2pi/SCALE and weight: k-points                                
   0.00000000  0.00000000  0.00000000       0.003
   0.13805750  0.00000000  0.00000000       0.006
   0.27611500  0.00000000  0.00000000       0.006
   0.41417251  0.00000000  0.00000000       0.006
   0.00000000  0.13805750  0.00000000       0.012
   0.13805750  0.13805750  0.00000000       0.023
   0.27611500  0.13805750  0.00000000       0.023
   0.41417251  0.13805750  0.00000000       0.023
   0.00000000  0.27611500  0.00000000       0.012
   0.13805750  0.27611500  0.00000000       0.023
   0.27611500  0.27611500  0.00000000       0.023
   0.41417251  0.27611500  0.00000000       0.023
   0.00000000  0.41417251  0.00000000       0.012
   0.13805750  0.41417251  0.00000000       0.023
   0.27611500  0.41417251  0.00000000       0.023
   0.41417251  0.41417251  0.00000000       0.023
   0.00000000  0.13805750  0.13805750       0.012
   0.13805750  0.13805750  0.13805750       0.023
   0.27611500  0.13805750  0.13805750       0.023
   0.41417251  0.13805750  0.13805750       0.023
   0.00000000  0.27611500  0.13805750       0.023
   0.13805750  0.27611500  0.13805750       0.047
   0.27611500  0.27611500  0.13805750       0.047
   0.41417251  0.27611500  0.13805750       0.047
   0.00000000  0.41417251  0.13805750       0.023
   0.13805750  0.41417251  0.13805750       0.047
   0.27611500  0.41417251  0.13805750       0.047
   0.41417251  0.41417251  0.13805750       0.047
   0.00000000  0.27611500  0.27611500       0.012
   0.13805750  0.27611500  0.27611500       0.023
   0.27611500  0.27611500  0.27611500       0.023
   0.41417251  0.27611500  0.27611500       0.023
   0.00000000  0.41417251  0.27611500       0.023
   0.13805750  0.41417251  0.27611500       0.047
   0.27611500  0.41417251  0.27611500       0.047
   0.41417251  0.41417251  0.27611500       0.047
   0.00000000  0.41417251  0.41417251       0.012
   0.13805750  0.41417251  0.41417251       0.023
   0.27611500  0.41417251  0.41417251       0.023
   0.41417251  0.41417251  0.41417251       0.023

 k-points in reciprocal lattice and weights: k-points                                
   0.00000000  0.00000000  0.00000000       0.003
   0.14285714  0.00000000  0.00000000       0.006
   0.28571429  0.00000000  0.00000000       0.006
   0.42857143  0.00000000  0.00000000       0.006
   0.00000000  0.14285714  0.00000000       0.012
   0.14285714  0.14285714  0.00000000       0.023
   0.28571429  0.14285714  0.00000000       0.023
   0.42857143  0.14285714  0.00000000       0.023
   0.00000000  0.28571429  0.00000000       0.012
   0.14285714  0.28571429  0.00000000       0.023
   0.28571429  0.28571429  0.00000000       0.023
   0.42857143  0.28571429  0.00000000       0.023
   0.00000000  0.42857143  0.00000000       0.012
   0.14285714  0.42857143  0.00000000       0.023
   0.28571429  0.42857143  0.00000000       0.023
   0.42857143  0.42857143  0.00000000       0.023
   0.00000000  0.14285714  0.14285714       0.012
   0.14285714  0.14285714  0.14285714       0.023
   0.28571429  0.14285714  0.14285714       0.023
   0.42857143  0.14285714  0.14285714       0.023
   0.00000000  0.28571429  0.14285714       0.023
   0.14285714  0.28571429  0.14285714       0.047
   0.28571429  0.28571429  0.14285714       0.047
   0.42857143  0.28571429  0.14285714       0.047
   0.00000000  0.42857143  0.14285714       0.023
   0.14285714  0.42857143  0.14285714       0.047
   0.28571429  0.42857143  0.14285714       0.047
   0.42857143  0.42857143  0.14285714       0.047
   0.00000000  0.28571429  0.28571429       0.012
   0.14285714  0.28571429  0.28571429       0.023
   0.28571429  0.28571429  0.28571429       0.023
   0.42857143  0.28571429  0.28571429       0.023
   0.00000000  0.42857143  0.28571429       0.023
   0.14285714  0.42857143  0.28571429       0.047
   0.28571429  0.42857143  0.28571429       0.047
   0.42857143  0.42857143  0.28571429       0.047
   0.00000000  0.42857143  0.42857143       0.012
   0.14285714  0.42857143  0.42857143       0.023
   0.28571429  0.42857143  0.42857143       0.023
   0.42857143  0.42857143  0.42857143       0.023

 position of ions in fractional coordinates (direct lattice) 
   0.25000000  0.25000000  0.25000000
   0.75000000  0.25000000  0.25000000
   0.25000000  0.75000000  0.25000000
   0.75000000  0.75000000  0.25000000
   0.25000000  0.25000000  0.75000000
   0.75000000  0.25000000  0.75000000
   0.25000000  0.75000000  0.75000000
   0.75000000  0.75000000  0.75000000
   0.50000000  0.00000000  0.00000000
   0.50000000  0.50000000  0.00000000
   0.00000000  0.50000000  0.00000000
   0.00000000  0.00000000  0.50000000
   0.50000000  0.00000000  0.50000000
   0.00000000  0.50000000  0.50000000
   0.00000000  0.00000000  0.00000000
   0.50000000  0.50000000  0.50000000

 position of ions in cartesian coordinates  (Angst):
   1.49006235  1.49006235  1.49006235
   4.47018704  1.49006235  1.49006235
   1.49006235  4.47018704  1.49006235
   4.47018704  4.47018704  1.49006235
   1.49006235  1.49006235  4.47018704
   4.47018704  1.49006235  4.47018704
   1.49006235  4.47018704  4.47018704
   4.47018704  4.47018704  4.47018704
   2.98012469  0.00000000  0.00000000
   2.98012469  2.98012469  0.00000000
   0.00000000  2.98012469  0.00000000
   0.00000000  0.00000000  2.98012469
   2.98012469  0.00000000  2.98012469
   0.00000000  2.98012469  2.98012469
   0.00000000  0.00000000  0.00000000
   2.98012469  2.98012469  2.98012469



--------------------------------------------------------------------------------------------------------


 k-point  1 :   0.0000 0.0000 0.0000  plane waves:    6187
 k-point  2 :   0.1429 0.0000 0.0000  plane waves:    6195
 k-point  3 :   0.2857 0.0000 0.0000  plane waves:    6195
 k-point  4 :   0.4286 0.0000 0.0000  plane waves:    6218
 k-point  5 :   0.0000 0.1429 0.0000  plane waves:    6195
 k-point  6 :   0.1429 0.1429 0.0000  plane waves:    6220
 k-point  7 :   0.2857 0.1429 0.0000  plane waves:    6222
 k-point  8 :   0.4286 0.1429 0.0000  plane waves:    6199
 k-point  9 :   0.0000 0.2857 0.0000  plane waves:    6195
 k-point 10 :   0.1429 0.2857 0.0000  plane waves:    6222
 k-point 11 :   0.2857 0.2857 0.0000  plane waves:    6202
 k-point 12 :   0.4286 0.2857 0.0000  plane waves:    6196
 k-point 13 :   0.0000 0.4286 0.0000  plane waves:    6218
 k-point 14 :   0.1429 0.4286 0.0000  plane waves:    6199
 k-point 15 :   0.2857 0.4286 0.0000  plane waves:    6196
 k-point 16 :   0.4286 0.4286 0.0000  plane waves:    6200
 k-point 17 :   0.0000 0.1429 0.1429  plane waves:    6220
 k-point 18 :   0.1429 0.1429 0.1429  plane waves:    6193
 k-point 19 :   0.2857 0.1429 0.1429  plane waves:    6206
 k-point 20 :   0.4286 0.1429 0.1429  plane waves:    6208
 k-point 21 :   0.0000 0.2857 0.1429  plane waves:    6222
 k-point 22 :   0.1429 0.2857 0.1429  plane waves:    6206
 k-point 23 :   0.2857 0.2857 0.1429  plane waves:    6210
 k-point 24 :   0.4286 0.2857 0.1429  plane waves:    6203
 k-point 25 :   0.0000 0.4286 0.1429  plane waves:    6199
 k-point 26 :   0.1429 0.4286 0.1429  plane waves:    6208
 k-point 27 :   0.2857 0.4286 0.1429  plane waves:    6203
 k-point 28 :   0.4286 0.4286 0.1429  plane waves:    6213
 k-point 29 :   0.0000 0.2857 0.2857  plane waves:    6202
 k-point 30 :   0.1429 0.2857 0.2857  plane waves:    6210
 k-point 31 :   0.2857 0.2857 0.2857  plane waves:    6211
 k-point 32 :   0.4286 0.2857 0.2857  plane waves:    6196
 k-point 33 :   0.0000 0.4286 0.2857  plane waves:    6196
 k-point 34 :   0.1429 0.4286 0.2857  plane waves:    6203
 k-point 35 :   0.2857 0.4286 0.2857  plane waves:    6196
 k-point 36 :   0.4286 0.4286 0.2857  plane waves:    6178
 k-point 37 :   0.0000 0.4286 0.4286  plane waves:    6200
 k-point 38 :   0.1429 0.4286 0.4286  plane waves:    6213
 k-point 39 :   0.2857 0.4286 0.4286  plane waves:    6178
 k-point 40 :   0.4286 0.4286 0.4286  plane waves:    6149

 maximum and minimum number of plane-waves per node :      6222     6149

 maximum number of plane-waves:      6222
 maximum index in each direction: 
   IXMAX=   11   IYMAX=   11   IZMAX=   11
   IXMIN=  -11   IYMIN=  -11   IZMIN=  -11


 serial   3D FFT for wavefunctions
 parallel 3D FFT for charge:
    minimum data exchange during FFTs selected (reduces bandwidth)


 total amount of memory used by VASP MPI-rank0   103557. kBytes
=======================================================================

   base      :      30000. kBytes
   nonlr-proj:       6835. kBytes
   fftplans  :       1269. kBytes
   grid      :       6573. kBytes
   one-center:        497. kBytes
   wavefun   :      58383. kBytes

     INWAV:  cpu time    0.0000: real time    0.0001
 Broyden mixing: mesh for mixing (old mesh)
   NGX = 23   NGY = 23   NGZ = 23
  (NGX  = 72   NGY  = 72   NGZ  = 72)
  gives a total of  12167 points

 initial charge density was supplied:
 charge density of overlapping atoms calculated
 number of electron     128.0000000 magnetization       8.8000000
 keeping initial charge density in first step


--------------------------------------------------------------------------------------------------------


 Maximum index for non-local projection operator         3887
 Maximum index for augmentation-charges         2111 (set IRDMAX)


--------------------------------------------------------------------------------------------------------


 First call to EWALD:  gamma=   0.297
 Maximum number of real-space cells 3x 3x 3
 Maximum number of reciprocal cells 3x 3x 3

    FEWALD:  cpu time    0.0022: real time    0.0022


--------------------------------------- Iteration      1(   1)  ---------------------------------------


    POTLOK:  cpu time    0.1005: real time    0.1019
    SETDIJ:  cpu time    0.0362: real time    0.0363
     EDDAV:  cpu time   23.9947: real time   24.0286
       DOS:  cpu time    0.0037: real time    0.0037
    --------------------------------------------
      LOOP:  cpu time   24.1352: real time   24.1704

 eigenvalue-minimisations  : 13440
 total energy-change (2. order) : 0.1068771E+04  (-0.5428009E+04)
 number of electron     128.0000000 magnetization       8.8000000
 augmentation part      128.0000000 magnetization       8.8000000

 Free energy of the ion-electron system (eV)
  ---------------------------------------------------
  alpha Z        PSCENC =       531.43978189
  Ewald energy   TEWEN  =     -9403.84627656
  -Hartree energ DENC   =     -3024.44179095
  -exchange      EXHF   =         0.00000000
  -V(xc)+E(xc)   XCENC  =        77.92469793
  PAW double counting   =     10320.96726947   -10647.99417394
  entropy T*S    EENTRO =        -0.00147240
  eigenvalues    EBANDS =      1985.26067744
  atomic energy  EATOM  =     11229.46195210
  Solvation  Ediel_sol  =         0.00000000
  ---------------------------------------------------
  free energy    TOTEN  =      1068.77066499 eV

  energy without entropy =     1068.77213739  energy(sigma->0) =     1068.77140119


--------------------------------------------------------------------------------------------------------




--------------------------------------- Iteration      1(   2)  ---------------------------------------


     EDDAV:  cpu time   24.8079: real time   24.8403
       DOS:  cpu time    0.0036: real time    0.0036
    --------------------------------------------
      LOOP:  cpu time   24.8115: real time   24.8439

 eigenvalue-minimisations  : 13440
 total energy-change (2. order) :-0.1066923E+04  (-0.1034076E+04)
 number of electron     128.0000000 magnetization       8.8000000
 augmentation part      128.0000000 magnetization       8.8000000

 Free energy of the ion-electron system (eV)
  ---------------------------------------------------
  alpha Z        PSCENC =       531.43978189
  Ewald energy   TEWEN  =     -9403.84627656
  -Hartree energ DENC   =     -3024.44179095
  -exchange      EXHF   =         0.00000000
  -V(xc)+E(xc)   XCENC  =        77.92469793
  PAW double counting   =     10320.96726947   -10647.99417394
  entropy T*S    EENTRO =        -0.00211699
  eigenvalues    EBANDS =       918.33866268
  atomic energy  EATOM  =     11229.46195210
  Solvation  Ediel_sol  =         0.00000000
  ---------------------------------------------------
  free energy    TOTEN  =         1.84800563 eV

  energy without entropy =        1.85012262  energy(sigma->0) =        1.84906412


--------------------------------------------------------------------------------------------------------




--------------------------------------- Iteration      1(   3)  ---------------------------------------


     EDDAV:  cpu time   26.2978: real time   26.3307
       DOS:  cpu time    0.0035: real time    0.0035
    --------------------------------------------
      LOOP:  cpu time   26.3014: real time   26.3343

 eigenvalue-minimisations  : 15156
 total energy-change (2. order) :-0.1121656E+03  (-0.1002980E+03)
 number of electron     128.0000000 magnetization       8.8000000
 augmentation part      128.0000000 magnetization       8.8000000

 Free energy of the ion-electron system (eV)
  ---------------------------------------------------
  alpha Z        PSCENC =       531.43978189
  Ewald energy   TEWEN  =     -9403.84627656
  -Hartree energ DENC   =     -3024.44179095
  -exchange      EXHF   =         0.00000000
  -V(xc)+E(xc)   XCENC  =        77.92469793
  PAW double counting   =     10320.96726947   -10647.99417394
  entropy T*S    EENTRO =        -0.00197620
  eigenvalues    EBANDS =       806.17293301
  atomic energy  EATOM  =     11229.46195210
  Solvation  Ediel_sol  =         0.00000000
  ---------------------------------------------------
  free energy    TOTEN  =      -110.31758324 eV

  energy without entropy =     -110.31560704  energy(sigma->0) =     -110.31659514


--------------------------------------------------------------------------------------------------------




--------------------------------------- Iteration      1(   4)  ---------------------------------------


     EDDAV:  cpu time   32.8469: real time   32.8963
       DOS:  cpu time    0.0038: real time    0.0038
    --------------------------------------------
      LOOP:  cpu time   32.8507: real time   32.9002

 eigenvalue-minimisations  : 19956
 total energy-change (2. order) :-0.6684689E+01  (-0.6354708E+01)
 number of electron     128.0000000 magnetization       8.8000000
 augmentation part      128.0000000 magnetization       8.8000000

 Free energy of the ion-electron system (eV)
  ---------------------------------------------------
  alpha Z        PSCENC =       531.43978189
  Ewald energy   TEWEN  =     -9403.84627656
  -Hartree energ DENC   =     -3024.44179095
  -exchange      EXHF   =         0.00000000
  -V(xc)+E(xc)   XCENC  =        77.92469793
  PAW double counting   =     10320.96726947   -10647.99417394
  entropy T*S    EENTRO =        -0.00267647
  eigenvalues    EBANDS =       799.48894466
  atomic energy  EATOM  =     11229.46195210
  Solvation  Ediel_sol  =         0.00000000
  ---------------------------------------------------
  free energy    TOTEN  =      -117.00227187 eV

  energy without entropy =     -116.99959540  energy(sigma->0) =     -117.00093363


--------------------------------------------------------------------------------------------------------




--------------------------------------- Iteration      1(   5)  ---------------------------------------


     EDDAV:  cpu time   32.6949: real time   32.8081
       DOS:  cpu time    0.0039: real time    0.0040
    CHARGE:  cpu time    0.7138: real time    0.7158
    MIXING:  cpu time    0.0017: real time    0.0017
    --------------------------------------------
      LOOP:  cpu time   33.4144: real time   33.5296

 eigenvalue-minimisations  : 19872
 total energy-change (2. order) :-0.2151308E+00  (-0.2143788E+00)
 number of electron     127.9999523 magnetization       7.3322153
 augmentation part       60.5435883 magnetization       4.6917586

 Broyden mixing:
  rms(total) = 0.34249E+01    rms(broyden)= 0.34248E+01
  rms(prec ) = 0.54020E+01
  weight for this iteration     100.00

 Free energy of the ion-electron system (eV)
  ---------------------------------------------------
  alpha Z        PSCENC =       531.43978189
  Ewald energy   TEWEN  =     -9403.84627656
  -Hartree energ DENC   =     -3024.44179095
  -exchange      EXHF   =         0.00000000
  -V(xc)+E(xc)   XCENC  =        77.92469793
  PAW double counting   =     10320.96726947   -10647.99417394
  entropy T*S    EENTRO =        -0.00277452
  eigenvalues    EBANDS =       799.27391189
  atomic energy  EATOM  =     11229.46195210
  Solvation  Ediel_sol  =         0.00000000
  ---------------------------------------------------
  free energy    TOTEN  =      -117.21740268 eV

  energy without entropy =     -117.21462816  energy(sigma->0) =     -117.21601542


--------------------------------------------------------------------------------------------------------




--------------------------------------- Iteration      1(   6)  ---------------------------------------


    POTLOK:  cpu time    0.0985: real time    0.1005
    SETDIJ:  cpu time    0.0367: real time    0.0367
    EDDIAG:  cpu time    3.2941: real time    3.3044
  RMM-DIIS:  cpu time   10.7140: real time   10.7515
    ORTHCH:  cpu time    0.6458: real time    0.6465
       DOS:  cpu time    0.0036: real time    0.0037
    CHARGE:  cpu time    0.7256: real time    0.7282
    MIXING:  cpu time    0.0017: real time    0.0017
    --------------------------------------------
      LOOP:  cpu time   15.5200: real time   15.5733

 eigenvalue-minimisations  : 13440
 total energy-change (2. order) : 0.5316411E+01  (-0.1814398E+02)
 number of electron     127.9999659 magnetization       7.7776912
 augmentation part       69.2179338 magnetization       5.7183286

 Broyden mixing:
  rms(total) = 0.52909E+01    rms(broyden)= 0.52907E+01
  rms(prec ) = 0.73669E+01
  weight for this iteration     100.00

 eigenvalues of (default mixing * dielectric matrix)
  average eigenvalue GAMMA=   0.1885
  0.1885

 Free energy of the ion-electron system (eV)
  ---------------------------------------------------
  alpha Z        PSCENC =       531.43978189
  Ewald energy   TEWEN  =     -9403.84627656
  -Hartree energ DENC   =     -2793.03237573
  -exchange      EXHF   =         0.00000000
  -V(xc)+E(xc)   XCENC  =        66.33866294
  PAW double counting   =     11125.40773701   -11419.29830904
  entropy T*S    EENTRO =        -0.00704995
  eigenvalues    EBANDS =       551.63488558
  atomic energy  EATOM  =     11229.46195210
  Solvation  Ediel_sol  =         0.00000000
  ---------------------------------------------------
  free energy    TOTEN  =      -111.90099176 eV

  energy without entropy =     -111.89394181  energy(sigma->0) =     -111.89746678


--------------------------------------------------------------------------------------------------------




--------------------------------------- Iteration      1(   7)  ---------------------------------------


    POTLOK:  cpu time    0.0989: real time    0.0990
    SETDIJ:  cpu time    0.0364: real time    0.0364
    EDDIAG:  cpu time    3.2885: real time    3.2983
  RMM-DIIS:  cpu time   10.7225: real time   10.7594
    ORTHCH:  cpu time    0.6451: real time    0.6459
       DOS:  cpu time    0.0036: real time    0.0037
    CHARGE:  cpu time    0.7155: real time    0.7162
    MIXING:  cpu time    0.0017: real time    0.0017
    --------------------------------------------
      LOOP:  cpu time   15.5122: real time   15.5607

 eigenvalue-minimisations  : 13444
 total energy-change (2. order) : 0.1098203E+01  (-0.4099631E+01)
 number of electron     127.9999446 magnetization       8.1867859
 augmentation part       71.0734706 magnetization       5.5095336

 Broyden mixing:
  rms(total) = 0.32738E+01    rms(broyden)= 0.32735E+01
  rms(prec ) = 0.51868E+01
  weight for this iteration     100.00

 eigenvalues of (default mixing * dielectric matrix)
  average eigenvalue GAMMA=   0.4085
  0.4085  0.4085

 Free energy of the ion-electron system (eV)
  ---------------------------------------------------
  alpha Z        PSCENC =       531.43978189
  Ewald energy   TEWEN  =     -9403.84627656
  -Hartree energ DENC   =     -2763.05010764
  -exchange      EXHF   =         0.00000000
  -V(xc)+E(xc)   XCENC  =        65.37529398
  PAW double counting   =     11358.01036597   -11652.28066527
  entropy T*S    EENTRO =        -0.00139472
  eigenvalues    EBANDS =       524.08826103
  atomic energy  EATOM  =     11229.46195210
  Solvation  Ediel_sol  =         0.00000000
  ---------------------------------------------------
  free energy    TOTEN  =      -110.80278922 eV

  energy without entropy =     -110.80139449  energy(sigma->0) =     -110.80209186


--------------------------------------------------------------------------------------------------------




--------------------------------------- Iteration      1(   8)  ---------------------------------------


    POTLOK:  cpu time    0.1097: real time    0.1107
    SETDIJ:  cpu time    0.0381: real time    0.0382
    EDDIAG:  cpu time    3.3901: real time    3.3949
  RMM-DIIS:  cpu time   10.6420: real time   10.6566
    ORTHCH:  cpu time    0.6411: real time    0.6417
       DOS:  cpu time    0.0037: real time    0.0039
    CHARGE:  cpu time    0.7188: real time    0.7196
    MIXING:  cpu time    0.0018: real time    0.0018
    --------------------------------------------
      LOOP:  cpu time   15.5454: real time   15.5673

 eigenvalue-minimisations  : 13462
 total energy-change (2. order) : 0.7682845E+01  (-0.2335220E+01)
 number of electron     127.9999579 magnetization       9.0899134
 augmentation part       67.3411240 magnetization       6.5446150

 Broyden mixing:
  rms(total) = 0.12131E+01    rms(broyden)= 0.12129E+01
  rms(prec ) = 0.19161E+01
  weight for this iteration     100.00

 eigenvalues of (default mixing * dielectric matrix)
  average eigenvalue GAMMA=   0.5711
  0.7422  0.7422  0.2290

 Free energy of the ion-electron system (eV)
  ---------------------------------------------------
  alpha Z        PSCENC =       531.43978189
  Ewald energy   TEWEN  =     -9403.84627656
  -Hartree energ DENC   =     -2839.50205611
  -exchange      EXHF   =         0.00000000
  -V(xc)+E(xc)   XCENC  =        72.09924278
  PAW double counting   =     11821.03689899   -12148.11058371
  entropy T*S    EENTRO =        -0.00311281
  eigenvalues    EBANDS =       634.30420902
  atomic energy  EATOM  =     11229.46195210
  Solvation  Ediel_sol  =         0.00000000
  ---------------------------------------------------
  free energy    TOTEN  =      -103.11994442 eV

  energy without entropy =     -103.11683161  energy(sigma->0) =     -103.11838801


--------------------------------------------------------------------------------------------------------




--------------------------------------- Iteration      1(   9)  ---------------------------------------


    POTLOK:  cpu time    0.0992: real time    0.0994
    SETDIJ:  cpu time    0.0367: real time    0.0367
    EDDIAG:  cpu time    3.3372: real time    3.3416
  RMM-DIIS:  cpu time   10.7400: real time   10.7552
    ORTHCH:  cpu time    0.6485: real time    0.6493
       DOS:  cpu time    0.0038: real time    0.0040
    CHARGE:  cpu time    0.7209: real time    0.7218
    MIXING:  cpu time    0.0019: real time    0.0019
    --------------------------------------------
      LOOP:  cpu time   15.5882: real time   15.6098

 eigenvalue-minimisations  : 13573
 total energy-change (2. order) :-0.1539792E+00  (-0.1731315E+00)
 number of electron     127.9999529 magnetization       9.3803253
 augmentation part       67.9621595 magnetization       7.2725541

 Broyden mixing:
  rms(total) = 0.91584E+00    rms(broyden)= 0.91576E+00
  rms(prec ) = 0.14976E+01
  weight for this iteration     100.00

 eigenvalues of (default mixing * dielectric matrix)
  average eigenvalue GAMMA=   0.6577
  1.2914  0.6575  0.4735  0.2083

 Free energy of the ion-electron system (eV)
  ---------------------------------------------------
  alpha Z        PSCENC =       531.43978189
  Ewald energy   TEWEN  =     -9403.84627656
  -Hartree energ DENC   =     -2826.67595887
  -exchange      EXHF   =         0.00000000
  -V(xc)+E(xc)   XCENC  =        74.01459763
  PAW double counting   =     12195.88546276   -12528.74530688
  entropy T*S    EENTRO =        -0.00212543
  eigenvalues    EBANDS =       625.19394978
  atomic energy  EATOM  =     11229.46195210
  Solvation  Ediel_sol  =         0.00000000
  ---------------------------------------------------
  free energy    TOTEN  =      -103.27392358 eV

  energy without entropy =     -103.27179815  energy(sigma->0) =     -103.27286086


--------------------------------------------------------------------------------------------------------




--------------------------------------- Iteration      1(  10)  ---------------------------------------


    POTLOK:  cpu time    0.1011: real time    0.1013
    SETDIJ:  cpu time    0.0366: real time    0.0366
    EDDIAG:  cpu time    3.3441: real time    3.3499
  RMM-DIIS:  cpu time   10.6627: real time   10.6810
    ORTHCH:  cpu time    0.6471: real time    0.6478
       DOS:  cpu time    0.0037: real time    0.0040
    CHARGE:  cpu time    0.7145: real time    0.7154
    MIXING:  cpu time    0.0020: real time    0.0020
    --------------------------------------------
      LOOP:  cpu time   15.5118: real time   15.5380

 eigenvalue-minimisations  : 13469
 total energy-change (2. order) : 0.3176271E+00  (-0.1017069E+00)
 number of electron     127.9999535 magnetization       9.4931920
 augmentation part       67.8575811 magnetization       6.9065314

 Broyden mixing:
  rms(total) = 0.58846E+00    rms(broyden)= 0.58845E+00
  rms(prec ) = 0.87448E+00
  weight for this iteration     100.00

 eigenvalues of (default mixing * dielectric matrix)
  average eigenvalue GAMMA=   0.6893
  1.7422  0.6172  0.6172  0.2104  0.2594

 Free energy of the ion-electron system (eV)
  ---------------------------------------------------
  alpha Z        PSCENC =       531.43978189
  Ewald energy   TEWEN  =     -9403.84627656
  -Hartree energ DENC   =     -2825.22175467
  -exchange      EXHF   =         0.00000000
  -V(xc)+E(xc)   XCENC  =        75.20515117
  PAW double counting   =     12479.99966532   -12817.96628115
  entropy T*S    EENTRO =        -0.00103662
  eigenvalues    EBANDS =       627.97250201
  atomic energy  EATOM  =     11229.46195210
  Solvation  Ediel_sol  =         0.00000000
  ---------------------------------------------------
  free energy    TOTEN  =      -102.95629651 eV

  energy without entropy =     -102.95525990  energy(sigma->0) =     -102.95577820


--------------------------------------------------------------------------------------------------------




--------------------------------------- Iteration      1(  11)  ---------------------------------------


    POTLOK:  cpu time    0.0991: real time    0.0993
    SETDIJ:  cpu time    0.0365: real time    0.0365
    EDDIAG:  cpu time    3.3515: real time    3.3564
  RMM-DIIS:  cpu time   11.2756: real time   11.2905
    ORTHCH:  cpu time    0.6579: real time    0.6624
       DOS:  cpu time    0.0038: real time    0.0039
    CHARGE:  cpu time    0.7234: real time    0.7241
    MIXING:  cpu time    0.0020: real time    0.0020
    --------------------------------------------
      LOOP:  cpu time   16.1498: real time   16.1751

 eigenvalue-minimisations  : 13983
 total energy-change (2. order) : 0.1354339E+00  (-0.3670698E-01)
 number of electron     127.9999548 magnetization       9.3779540
 augmentation part       67.5794714 magnetization       6.9290964

 Broyden mixing:
  rms(total) = 0.22117E+00    rms(broyden)= 0.22115E+00
  rms(prec ) = 0.25412E+00
  weight for this iteration     100.00

 eigenvalues of (default mixing * dielectric matrix)
  average eigenvalue GAMMA=   0.8091
  2.1890  0.8140  0.8140  0.5431  0.2117  0.2828

 Free energy of the ion-electron system (eV)
  ---------------------------------------------------
  alpha Z        PSCENC =       531.43978189
  Ewald energy   TEWEN  =     -9403.84627656
  -Hartree energ DENC   =     -2825.87910296
  -exchange      EXHF   =         0.00000000
  -V(xc)+E(xc)   XCENC  =        76.18806550
  PAW double counting   =     12757.07984510   -13100.06576840
  entropy T*S    EENTRO =        -0.00127040
  eigenvalues    EBANDS =       632.80191110
  atomic energy  EATOM  =     11229.46195210
  Solvation  Ediel_sol  =         0.00000000
  ---------------------------------------------------
  free energy    TOTEN  =      -102.82086263 eV

  energy without entropy =     -102.81959223  energy(sigma->0) =     -102.82022743


--------------------------------------------------------------------------------------------------------




--------------------------------------- Iteration      1(  12)  ---------------------------------------


    POTLOK:  cpu time    0.1046: real time    0.1056
    SETDIJ:  cpu time    0.0376: real time    0.0377
    EDDIAG:  cpu time    3.4037: real time    3.4090
  RMM-DIIS:  cpu time   11.7517: real time   11.7706
    ORTHCH:  cpu time    0.6598: real time    0.6608
       DOS:  cpu time    0.0038: real time    0.0038
    CHARGE:  cpu time    0.7264: real time    0.7274
    MIXING:  cpu time    0.0022: real time    0.0022
    --------------------------------------------
      LOOP:  cpu time   16.6898: real time   16.7172

 eigenvalue-minimisations  : 14445
 total energy-change (2. order) : 0.1029100E-01  (-0.7547541E-02)
 number of electron     127.9999546 magnetization       9.2393683
 augmentation part       67.7410544 magnetization       6.8072555

 Broyden mixing:
  rms(total) = 0.11235E+00    rms(broyden)= 0.11235E+00
  rms(prec ) = 0.12445E+00
  weight for this iteration     100.00

 eigenvalues of (default mixing * dielectric matrix)
  average eigenvalue GAMMA=   0.8590
  2.2166  0.9811  0.9811  0.7727  0.5648  0.2116  0.2850

 Free energy of the ion-electron system (eV)
  ---------------------------------------------------
  alpha Z        PSCENC =       531.43978189
  Ewald energy   TEWEN  =     -9403.84627656
  -Hartree energ DENC   =     -2820.22182686
  -exchange      EXHF   =         0.00000000
  -V(xc)+E(xc)   XCENC  =        76.21010747
  PAW double counting   =     12923.28834284   -13267.58716171
  entropy T*S    EENTRO =        -0.00124128
  eigenvalues    EBANDS =       628.44575048
  atomic energy  EATOM  =     11229.46195210
  Solvation  Ediel_sol  =         0.00000000
  ---------------------------------------------------
  free energy    TOTEN  =      -102.81057163 eV

  energy without entropy =     -102.80933035  energy(sigma->0) =     -102.80995099


--------------------------------------------------------------------------------------------------------




--------------------------------------- Iteration      1(  13)  ---------------------------------------


    POTLOK:  cpu time    0.0990: real time    0.0992
    SETDIJ:  cpu time    0.0366: real time    0.0366
    EDDIAG:  cpu time    3.3617: real time    3.3668
  RMM-DIIS:  cpu time   11.3294: real time   11.3477
    ORTHCH:  cpu time    0.6497: real time    0.6507
       DOS:  cpu time    0.0037: real time    0.0038
    CHARGE:  cpu time    0.7194: real time    0.7203
    MIXING:  cpu time    0.0023: real time    0.0023
    --------------------------------------------
      LOOP:  cpu time   16.2019: real time   16.2273

 eigenvalue-minimisations  : 14221
 total energy-change (2. order) : 0.1349386E-02  (-0.1422455E-02)
 number of electron     127.9999546 magnetization       9.2086851
 augmentation part       67.7705632 magnetization       6.7678784

 Broyden mixing:
  rms(total) = 0.41946E-01    rms(broyden)= 0.41945E-01
  rms(prec ) = 0.47826E-01
  weight for this iteration     100.00

 eigenvalues of (default mixing * dielectric matrix)
  average eigenvalue GAMMA=   0.9494
  2.2474  1.8512  0.8794  0.8794  0.6886  0.5516  0.2116  0.2858

 Free energy of the ion-electron system (eV)
  ---------------------------------------------------
  alpha Z        PSCENC =       531.43978189
  Ewald energy   TEWEN  =     -9403.84627656
  -Hartree energ DENC   =     -2819.41703444
  -exchange      EXHF   =         0.00000000
  -V(xc)+E(xc)   XCENC  =        75.96738998
  PAW double counting   =     12959.65869248   -13303.90249105
  entropy T*S    EENTRO =        -0.00126572
  eigenvalues    EBANDS =       627.83002908
  atomic energy  EATOM  =     11229.46195210
  Solvation  Ediel_sol  =         0.00000000
  ---------------------------------------------------
  free energy    TOTEN  =      -102.80922224 eV

  energy without entropy =     -102.80795652  energy(sigma->0) =     -102.80858938


--------------------------------------------------------------------------------------------------------




--------------------------------------- Iteration      1(  14)  ---------------------------------------


    POTLOK:  cpu time    0.0991: real time    0.0993
    SETDIJ:  cpu time    0.0365: real time    0.0365
    EDDIAG:  cpu time    3.3862: real time    3.3918
  RMM-DIIS:  cpu time   12.5153: real time   12.5361
    ORTHCH:  cpu time    0.6530: real time    0.6541
       DOS:  cpu time    0.0038: real time    0.0038
    CHARGE:  cpu time    0.7235: real time    0.7245
    MIXING:  cpu time    0.0025: real time    0.0025
    --------------------------------------------
      LOOP:  cpu time   17.4200: real time   17.4487

 eigenvalue-minimisations  : 15579
 total energy-change (2. order) :-0.1238467E-03  (-0.2713088E-03)
 number of electron     127.9999546 magnetization       9.2176094
 augmentation part       67.7685719 magnetization       6.7806980

 Broyden mixing:
  rms(total) = 0.13889E-01    rms(broyden)= 0.13889E-01
  rms(prec ) = 0.18160E-01
  weight for this iteration     100.00

 eigenvalues of (default mixing * dielectric matrix)
  average eigenvalue GAMMA=   1.0083
  2.3280  2.3280  0.2116  0.2857  0.9313  0.9313  0.5473  0.7557  0.7557

 Free energy of the ion-electron system (eV)
  ---------------------------------------------------
  alpha Z        PSCENC =       531.43978189
  Ewald energy   TEWEN  =     -9403.84627656
  -Hartree energ DENC   =     -2819.47658886
  -exchange      EXHF   =         0.00000000
  -V(xc)+E(xc)   XCENC  =        75.98446471
  PAW double counting   =     12971.98281901   -13316.21874069
  entropy T*S    EENTRO =        -0.00129645
  eigenvalues    EBANDS =       627.86453876
  atomic energy  EATOM  =     11229.46195210
  Solvation  Ediel_sol  =         0.00000000
  ---------------------------------------------------
  free energy    TOTEN  =      -102.80934609 eV

  energy without entropy =     -102.80804964  energy(sigma->0) =     -102.80869786


--------------------------------------------------------------------------------------------------------




--------------------------------------- Iteration      1(  15)  ---------------------------------------


    POTLOK:  cpu time    0.0993: real time    0.0994
    SETDIJ:  cpu time    0.0368: real time    0.0368
    EDDIAG:  cpu time    3.3711: real time    3.3764
  RMM-DIIS:  cpu time   12.0865: real time   12.1061
    ORTHCH:  cpu time    0.6588: real time    0.6612
       DOS:  cpu time    0.0038: real time    0.0038
    CHARGE:  cpu time    0.7205: real time    0.7216
    MIXING:  cpu time    0.0027: real time    0.0027
    --------------------------------------------
      LOOP:  cpu time   16.9796: real time   17.0080

 eigenvalue-minimisations  : 14926
 total energy-change (2. order) : 0.2744754E-04  (-0.3484189E-04)
 number of electron     127.9999546 magnetization       9.2290742
 augmentation part       67.7723000 magnetization       6.7898514

 Broyden mixing:
  rms(total) = 0.81515E-02    rms(broyden)= 0.81513E-02
  rms(prec ) = 0.92192E-02
  weight for this iteration     100.00

 eigenvalues of (default mixing * dielectric matrix)
  average eigenvalue GAMMA=   1.0128
  2.3771  2.3771  1.0694  1.0694  0.2116  0.2857  0.7945  0.7945  0.5536  0.5947

 Free energy of the ion-electron system (eV)
  ---------------------------------------------------
  alpha Z        PSCENC =       531.43978189
  Ewald energy   TEWEN  =     -9403.84627656
  -Hartree energ DENC   =     -2819.54804867
  -exchange      EXHF   =         0.00000000
  -V(xc)+E(xc)   XCENC  =        75.98012275
  PAW double counting   =     12970.35147591   -13314.49074356
  entropy T*S    EENTRO =        -0.00128230
  eigenvalues    EBANDS =       627.84369980
  atomic energy  EATOM  =     11229.46195210
  Solvation  Ediel_sol  =         0.00000000
  ---------------------------------------------------
  free energy    TOTEN  =      -102.80931864 eV

  energy without entropy =     -102.80803634  energy(sigma->0) =     -102.80867749


--------------------------------------------------------------------------------------------------------




--------------------------------------- Iteration      1(  16)  ---------------------------------------


    POTLOK:  cpu time    0.1058: real time    0.1063
    SETDIJ:  cpu time    0.0366: real time    0.0367
    EDDIAG:  cpu time    3.3846: real time    3.3886
  RMM-DIIS:  cpu time   10.4027: real time   10.4162
    ORTHCH:  cpu time    0.6591: real time    0.6599
       DOS:  cpu time    0.0038: real time    0.0041
    CHARGE:  cpu time    0.7276: real time    0.7284
    MIXING:  cpu time    0.0027: real time    0.0027
    --------------------------------------------
      LOOP:  cpu time   15.3231: real time   15.3429

 eigenvalue-minimisations  : 12936
 total energy-change (2. order) : 0.1221255E-04  (-0.1053330E-04)
 number of electron     127.9999546 magnetization       9.2292129
 augmentation part       67.7688569 magnetization       6.7898502

 Broyden mixing:
  rms(total) = 0.27595E-02    rms(broyden)= 0.27594E-02
  rms(prec ) = 0.31487E-02
  weight for this iteration     100.00

 eigenvalues of (default mixing * dielectric matrix)
  average eigenvalue GAMMA=   1.0748
  2.5915  2.5915  1.5428  0.2116  0.2857  0.8970  0.8970  0.8228  0.8228  0.5491
  0.6116

 Free energy of the ion-electron system (eV)
  ---------------------------------------------------
  alpha Z        PSCENC =       531.43978189
  Ewald energy   TEWEN  =     -9403.84627656
  -Hartree energ DENC   =     -2819.65749380
  -exchange      EXHF   =         0.00000000
  -V(xc)+E(xc)   XCENC  =        76.02123047
  PAW double counting   =     12971.06351114   -13315.20701437
  entropy T*S    EENTRO =        -0.00128216
  eigenvalues    EBANDS =       627.91628486
  atomic energy  EATOM  =     11229.46195210
  Solvation  Ediel_sol  =         0.00000000
  ---------------------------------------------------
  free energy    TOTEN  =      -102.80930643 eV

  energy without entropy =     -102.80802427  energy(sigma->0) =     -102.80866535


--------------------------------------------------------------------------------------------------------




--------------------------------------- Iteration      1(  17)  ---------------------------------------


    POTLOK:  cpu time    0.0992: real time    0.0994
    SETDIJ:  cpu time    0.0365: real time    0.0365
    EDDIAG:  cpu time    3.3982: real time    3.4022
  RMM-DIIS:  cpu time    7.1739: real time    7.1843
    ORTHCH:  cpu time    0.6602: real time    0.6609
       DOS:  cpu time    0.0035: real time    0.0036
    --------------------------------------------
      LOOP:  cpu time   11.3716: real time   11.3869

 eigenvalue-minimisations  :  8352
 total energy-change (2. order) : 0.3429303E-05  (-0.1578599E-05)
 number of electron     127.9999546 magnetization       9.2292129
 augmentation part       67.7688569 magnetization       6.7898502

 Free energy of the ion-electron system (eV)
  ---------------------------------------------------
  alpha Z        PSCENC =       531.43978189
  Ewald energy   TEWEN  =     -9403.84627656
  -Hartree energ DENC   =     -2819.69047286
  -exchange      EXHF   =         0.00000000
  -V(xc)+E(xc)   XCENC  =        76.01740074
  PAW double counting   =     12970.76071609   -13314.89508315
  entropy T*S    EENTRO =        -0.00128081
  eigenvalues    EBANDS =       627.94395956
  atomic energy  EATOM  =     11229.46195210
  Solvation  Ediel_sol  =         0.00000000
  ---------------------------------------------------
  free energy    TOTEN  =      -102.80930300 eV

  energy without entropy =     -102.80802220  energy(sigma->0) =     -102.80866260


--------------------------------------------------------------------------------------------------------




 average (electrostatic) potential at core
  the test charge radii are     0.9791  1.0210  1.4837
  (the norm of the test charge is              1.0000)
       1 -83.8727       2 -83.8727       3 -83.8727       4 -83.8727       5 -83.8727
       6 -83.8727       7 -83.8727       8 -83.8727       9 -42.6523      10 -42.4354
      11 -42.4354      12 -42.4354      13 -42.4354      14 -42.6523      15 -34.5495
      16 -34.5495



 E-fermi :   7.4323     XC(G=0): -12.2923     alpha+bet :-14.1298


 spin component 1

 k-point     1 :       0.0000    0.0000    0.0000
  band No.  band energies     occupation 
      1      -1.9876      1.00000
      2       0.5097      1.00000
      3       2.2109      1.00000
      4       2.2109      1.00000
      5       2.2502      1.00000
      6       2.3696      1.00000
      7       2.9726      1.00000
      8       3.0689      1.00000
      9       3.0689      1.00000
     10       3.1132      1.00000
     11       3.1162      1.00000
[...]
     79      11.1338      0.00000
     80      11.1780      0.00000
     81      11.6773      0.00000
     82      11.6967      0.00000
     83      12.1623      0.00000
     84      12.3266      0.00000


--------------------------------------------------------------------------------------------------------


 soft charge-density along one line, spin component           1
         0         1         2         3         4         5         6         7         8         9
 total charge-density along one line

 soft charge-density along one line, spin component           2
         0         1         2         3         4         5         6         7         8         9
 total charge-density along one line

 pseudopotential strength for first ion, spin component:           1
 -1.681   0.007   0.015  -0.017  -0.000  -2.315   0.007   0.014
  0.007  -1.691   0.025   0.007  -0.043   0.007  -2.324   0.024
  0.015   0.025  -1.710  -0.007  -0.006   0.014   0.024  -2.343
 -0.017   0.007  -0.007  -1.681  -0.013  -0.017   0.007  -0.007
 -0.000  -0.043  -0.006  -0.013  -1.704  -0.000  -0.041  -0.006
 -2.315   0.007   0.014  -0.017  -0.000  -2.879   0.006   0.014
  0.007  -2.324   0.024   0.007  -0.041   0.006  -2.888   0.022
  0.014   0.024  -2.343  -0.007  -0.006   0.014   0.022  -2.905
 -0.017   0.007  -0.007  -2.315  -0.012  -0.016   0.006  -0.007
 -0.000  -0.041  -0.006  -0.012  -2.336  -0.000  -0.039  -0.005
  0.000  -0.010   0.001   0.000  -0.002   0.001  -0.010   0.001
  0.001  -0.019   0.002   0.001  -0.003   0.001  -0.018   0.002
  0.000  -0.000   0.000   0.000   0.000   0.000  -0.000   0.000
  0.000  -0.000  -0.000   0.000  -0.000   0.000  -0.000  -0.000
 -0.000   0.000  -0.000  -0.000   0.000  -0.000   0.000  -0.000
  0.000  -0.000   0.000   0.000   0.000   0.000  -0.000   0.000
  0.000  -0.000  -0.000   0.000  -0.000   0.000  -0.000  -0.000
 -0.000   0.000  -0.000  -0.000   0.000  -0.000   0.000  -0.000
 pseudopotential strength for first ion, spin component:           2
 -1.504   0.001  -0.029  -0.003   0.000  -2.146   0.001  -0.027
  0.001  -1.520  -0.029   0.001   0.050   0.001  -2.162  -0.028
 -0.029  -0.029  -1.459   0.014  -0.005  -0.027  -0.028  -2.103
 -0.003   0.001   0.014  -1.504   0.025  -0.002   0.001   0.013
  0.000   0.050  -0.005   0.025  -1.453   0.000   0.048  -0.005
 -2.146   0.001  -0.027  -0.002   0.000  -2.719   0.000  -0.026
  0.001  -2.162  -0.028   0.001   0.048   0.000  -2.733  -0.027
 -0.027  -0.028  -2.103   0.013  -0.005  -0.026  -0.027  -2.677
 -0.002   0.001   0.013  -2.146   0.024  -0.002   0.000   0.013
  0.000   0.048  -0.005   0.024  -2.097   0.000   0.046  -0.005
 -0.007   0.009   0.001  -0.007  -0.001  -0.007   0.009   0.001
 -0.013   0.016   0.001  -0.013  -0.002  -0.012   0.016   0.001
  0.000  -0.000   0.000   0.000   0.000   0.000  -0.000   0.000
  0.000  -0.000  -0.000   0.000  -0.000   0.000  -0.000  -0.000
 -0.000   0.000  -0.000  -0.000   0.000  -0.000   0.000  -0.000
  0.000  -0.000   0.000   0.000   0.000   0.000  -0.000   0.000
  0.000  -0.000  -0.000   0.000  -0.000   0.000  -0.000  -0.000
 -0.000   0.000  -0.000  -0.000   0.000  -0.000   0.000  -0.000
 total augmentation occupancy for first ion, spin component:           1
  2.028   0.105   0.016   0.030   0.002  -0.547  -0.092  -0.015  -0.050  -0.001  -0.074   0.036   0.000   0.000   0.000   0.000
  0.105   1.955  -0.034   0.105   0.060  -0.092  -0.503   0.033  -0.092  -0.057  -0.105   0.041  -0.000   0.000  -0.000  -0.000
  0.016  -0.034   2.724  -0.009   0.009  -0.015   0.033  -1.011   0.008  -0.006  -0.002  -0.001  -0.000   0.000   0.000  -0.000
  0.030   0.105  -0.009   2.028  -0.013  -0.050  -0.092   0.008  -0.547   0.012  -0.074   0.036   0.000   0.000  -0.000  -0.000
  0.002   0.060   0.009  -0.013   2.713  -0.001  -0.057  -0.006   0.012  -1.004   0.004   0.001   0.000   0.000   0.000   0.000
 -0.547  -0.092  -0.015  -0.050  -0.001   0.855   0.086   0.002   0.061   0.000   0.046  -0.024   0.000  -0.000  -0.000   0.000
 -0.092  -0.503   0.033  -0.092  -0.057   0.086   0.826  -0.023   0.086   0.039   0.063  -0.026   0.000   0.000   0.000   0.000
 -0.015   0.033  -1.011   0.008  -0.006   0.002  -0.023   1.065  -0.001   0.002   0.001   0.001   0.000   0.000   0.000   0.000
 -0.050  -0.092   0.008  -0.547   0.012   0.061   0.086  -0.001   0.855  -0.002   0.046  -0.024  -0.000   0.000   0.000  -0.000
 -0.001  -0.057  -0.006   0.012  -1.004   0.000   0.039   0.002  -0.002   1.063  -0.001  -0.001   0.000  -0.000   0.000   0.000
 -0.074  -0.105  -0.002  -0.074   0.004   0.046   0.063   0.001   0.046  -0.001   2.117  -0.289   0.000  -0.000   0.000  -0.000
  0.036   0.041  -0.001   0.036   0.001  -0.024  -0.026   0.001  -0.024  -0.001  -0.289   0.050  -0.000   0.000   0.000  -0.000
  0.000  -0.000  -0.000   0.000   0.000   0.000   0.000   0.000  -0.000   0.000   0.000   0.000   0.255   0.002   0.001  -0.027
  0.000   0.000   0.000   0.000   0.000  -0.000   0.000   0.000   0.000   0.000  -0.000  -0.000   0.002   0.255   0.001  -0.002
  0.000  -0.000   0.000  -0.000  -0.000  -0.000   0.000   0.000  -0.000  -0.000  -0.000  -0.000   0.001   0.001   0.255  -0.002
  0.000   0.000   0.000  -0.000   0.000   0.000   0.000   0.000  -0.000   0.000  -0.000   0.000  -0.027  -0.002  -0.002   0.003
  0.000  -0.000   0.000   0.000   0.000   0.000  -0.000   0.000   0.000   0.000   0.000   0.000  -0.002  -0.027  -0.002   0.001
 -0.000   0.000  -0.000   0.000   0.000  -0.000   0.000   0.000   0.000   0.000  -0.000  -0.000  -0.002  -0.002  -0.027   0.001
 total augmentation occupancy for first ion, spin component:           2
  0.308   0.075  -0.192  -0.270  -0.016  -0.182  -0.073   0.102   0.252   0.013  -0.050   0.003   0.000   0.000   0.000   0.000
  0.075   0.273  -0.235   0.075   0.407  -0.073  -0.163   0.123  -0.073  -0.213   0.131  -0.007   0.000   0.000   0.000   0.000
 -0.192  -0.235   0.455   0.110  -0.014   0.101   0.125  -0.216  -0.062   0.012  -0.011  -0.004   0.000  -0.000   0.000  -0.000
 -0.270   0.075   0.110   0.308   0.158   0.252  -0.073  -0.063  -0.182  -0.082  -0.050   0.003   0.000   0.000   0.000   0.000
 -0.016   0.407  -0.014   0.158   0.471   0.013  -0.216   0.012  -0.081  -0.230   0.018   0.007   0.000   0.000   0.000   0.000
 -0.182  -0.073   0.101   0.252   0.013   0.085   0.066  -0.043  -0.220  -0.010   0.034  -0.007  -0.000   0.000   0.000   0.000
 -0.073  -0.163   0.125  -0.073  -0.216   0.066   0.075  -0.051   0.066   0.088  -0.085   0.019  -0.000   0.000  -0.000   0.000
  0.102   0.123  -0.216  -0.063   0.012  -0.043  -0.051   0.061   0.030  -0.010   0.007   0.002   0.000   0.000   0.000   0.000
  0.252  -0.073  -0.062  -0.182  -0.081  -0.220   0.066   0.030   0.085   0.032   0.034  -0.007   0.000  -0.000   0.000   0.000
  0.013  -0.213   0.012  -0.082  -0.230  -0.010   0.088  -0.010   0.032   0.072  -0.012  -0.003   0.000   0.000  -0.000   0.000
 -0.050   0.131  -0.011  -0.050   0.018   0.034  -0.085   0.007   0.034  -0.012  -0.042   0.010   0.000  -0.000   0.000   0.000
  0.003  -0.007  -0.004   0.003   0.007  -0.007   0.019   0.002  -0.007  -0.003   0.010  -0.002   0.000   0.000  -0.000   0.000
  0.000   0.000  -0.000   0.000  -0.000  -0.000  -0.000   0.000   0.000   0.000   0.000   0.000  -0.002  -0.020   0.008   0.000
  0.000   0.000   0.000   0.000   0.000   0.000   0.000   0.000  -0.000   0.000  -0.000   0.000  -0.020  -0.002   0.008   0.003
  0.000   0.000   0.000   0.000   0.000   0.000   0.000  -0.000   0.000  -0.000  -0.000   0.000   0.008   0.008  -0.001  -0.001
  0.000   0.000  -0.000   0.000   0.000  -0.000   0.000   0.000   0.000   0.000  -0.000   0.000   0.000   0.003  -0.001  -0.000
  0.000   0.000   0.000   0.000   0.000  -0.000   0.000  -0.000   0.000   0.000   0.000   0.000   0.003   0.000  -0.001  -0.000
  0.000   0.000  -0.000   0.000  -0.000  -0.000   0.000   0.000  -0.000   0.000   0.000  -0.000  -0.001  -0.001   0.000   0.000


------------------------ aborting loop because EDIFF is reached ----------------------------------------





 total charge     

# of ion       s       p       d       tot
------------------------------------------
    1        0.465   0.423   8.397   9.285
    2        0.465   0.421   8.367   9.253
    3        0.464   0.418   8.402   9.285
    4        0.467   0.419   8.386   9.272
    5        0.467   0.419   8.386   9.272
    6        0.464   0.418   8.402   9.285
    7        0.465   0.421   8.367   9.253
    8        0.465   0.423   8.397   9.285
    9        0.336   0.327   4.898   5.561
   10        0.335   0.325   4.919   5.580
   11        0.325   0.314   4.927   5.566
   12        0.335   0.325   4.919   5.580
   13        0.325   0.314   4.927   5.566
   14        0.336   0.327   4.898   5.561
   15        1.264   1.835   0.352   3.452
   16        1.264   1.835   0.352   3.452
--------------------------------------------------
tot          8.245   8.965  97.297 114.507



 magnetization (x)

# of ion       s       p       d       tot
------------------------------------------
    1       -0.005  -0.002   0.237   0.230
    2       -0.005   0.005   0.262   0.262
    3       -0.006  -0.007   0.217   0.204
    4       -0.004  -0.006   0.224   0.214
    5       -0.004  -0.006   0.224   0.214
    6       -0.006  -0.007   0.217   0.204
    7       -0.005   0.005   0.262   0.262
    8       -0.005  -0.002   0.237   0.230
    9       -0.031  -0.063  -3.511  -3.605
   10        0.028   0.046   3.521   3.596
   11        0.028   0.035   3.549   3.612
   12        0.028   0.046   3.521   3.596
   13        0.028   0.035   3.549   3.612
   14       -0.031  -0.063  -3.511  -3.605
   15       -0.001  -0.032  -0.006  -0.039
   16       -0.001  -0.032  -0.006  -0.039
--------------------------------------------------
tot          0.006  -0.047   8.986   8.944

    CHARGE:  cpu time    0.7015: real time    0.7021
    FORLOC:  cpu time    0.0072: real time    0.0072
    FORNL :  cpu time    5.0443: real time    5.0500
    STRESS:  cpu time   15.1743: real time   15.1937
    FORCOR:  cpu time    0.1020: real time    0.1021
    FORHAR:  cpu time    0.0168: real time    0.0168
    MIXING:  cpu time    0.0030: real time    0.0030
    OFIELD:  cpu time    0.0000: real time    0.0000

  FORCE on cell =-STRESS in cart. coord.  units (eV):
  Direction    XX          YY          ZZ          XY          YZ          ZX
  --------------------------------------------------------------------------------------
  Alpha Z   531.43978   531.43978   531.43978
  Ewald   -3134.62482 -3134.62482 -3134.62482    -0.00000     0.00000     0.00000
  Hartree   941.09293   939.27025   939.27025    -0.00000    -0.00000    -0.00000
  E(xc)    -671.90903  -671.24417  -671.24417    -0.00000     0.00000     0.00000
  Local    -167.39953  -159.62287  -159.62287    -0.00000    -0.00000     0.00000
  n-local  -145.56444  -147.08863  -143.18234     0.03006    -0.32348    -0.69353
  augment  1583.32479  1578.79321  1578.79321     0.00000     0.00000     0.00000
  Kinetic  1067.28882  1051.87709  1066.73557     1.01452     1.56070     1.21142
  Fock        0.00000     0.00000     0.00000     0.00000     0.00000     0.00000
  -------------------------------------------------------------------------------------
  Total       3.64850    -1.81777    -1.81777    -0.00000     0.00000     0.00000
  in kB      27.60776   -13.75485   -13.75485    -0.00000     0.00000     0.00000
  external pressure =        0.03 kB  Pullay stress =        0.00 kB


 VOLUME and BASIS-vectors are now :
 -----------------------------------------------------------------------------
  energy-cutoff  :      550.00
  volume of cell :      211.74
      direct lattice vectors                 reciprocal lattice vectors
     5.960249390  0.000000000  0.000000000     0.167778214  0.000000000  0.000000000
     0.000000000  5.960249390  0.000000000     0.000000000  0.167778214  0.000000000
     0.000000000  0.000000000  5.960249390     0.000000000  0.000000000  0.167778214

  length of vectors
     5.960249390  5.960249390  5.960249390     0.167778214  0.167778214  0.167778214


 FORCES acting on ions
    electron-ion (+dipol)            ewald-force                    non-local-force                 convergence-correction
 -----------------------------------------------------------------------------------------------
   0.116E-11 0.656E-12 0.819E-12   -.462E-13 -.107E-13 0.000E+00   -.794E-22 -.529E-22 -.529E-22   0.226E-13 -.443E-13 -.204E-12
   -.189E-12 -.615E-12 -.148E-11   -.249E-13 -.142E-13 -.355E-14   0.794E-22 -.106E-21 0.000E+00   -.359E-13 -.225E-13 -.257E-12
   0.750E-12 0.339E-11 0.801E-12   -.639E-13 -.462E-13 0.355E-14   -.106E-21 -.106E-21 0.000E+00   0.297E-13 0.503E-13 -.162E-12
   0.682E-12 0.411E-11 -.817E-11   -.320E-13 -.568E-13 0.000E+00   0.827E-22 0.106E-21 -.106E-21   -.402E-13 0.522E-13 -.194E-12
   0.757E-12 0.636E-12 0.211E-11   -.746E-13 -.568E-13 0.142E-13   -.463E-22 -.106E-21 0.238E-21   0.217E-13 -.370E-13 0.790E-13
   0.547E-12 -.120E-11 0.612E-11   -.213E-13 -.462E-13 0.355E-14   0.106E-21 -.265E-22 0.529E-22   -.424E-13 -.318E-13 0.145E-12
   0.523E-12 0.386E-11 0.189E-11   -.675E-13 -.142E-13 -.355E-14   -.529E-22 0.000E+00 0.106E-21   0.122E-13 0.367E-13 0.925E-13
   0.174E-11 -.376E-11 0.648E-11   -.320E-13 -.107E-13 0.142E-13   0.562E-22 0.794E-22 0.212E-21   -.168E-13 0.546E-13 0.121E-12
   0.222E-12 0.270E-13 -.960E-12   0.587E-13 0.287E-13 -.492E-14   0.165E-23 -.331E-23 0.331E-23   -.288E-13 0.106E-14 0.640E-13
   0.216E-12 0.150E-12 0.193E-12   0.611E-13 0.429E-13 -.781E-15   0.000E+00 0.265E-22 0.000E+00   -.344E-13 -.305E-15 0.606E-13
   -.372E-13 0.184E-12 -.700E-13   0.549E-13 0.448E-13 -.484E-14   0.000E+00 0.000E+00 0.265E-22   0.471E-13 -.128E-14 0.533E-13
   -.371E-13 -.144E-13 0.215E-12   0.536E-13 0.285E-13 -.125E-13   0.000E+00 0.265E-22 0.000E+00   0.614E-13 -.139E-13 -.496E-13
   0.214E-12 0.695E-14 0.898E-12   0.562E-13 0.242E-13 -.929E-14   0.000E+00 0.000E+00 0.265E-22   -.443E-13 -.142E-13 -.637E-13
   -.315E-13 0.182E-12 0.207E-12   0.521E-13 0.287E-13 0.489E-14   0.000E+00 -.331E-23 0.000E+00   0.675E-13 0.246E-13 -.578E-13
   -.380E-13 -.275E-15 -.182E-13   0.264E-13 -.367E-14 -.106E-14   0.000E+00 0.000E+00 0.000E+00   0.124E-13 -.381E-14 0.208E-13
   -.306E-13 -.266E-12 -.630E-12   0.278E-13 0.106E-14 0.369E-14   0.000E+00 0.000E+00 -.132E-22   -.159E-13 0.691E-14 -.201E-13
 -----------------------------------------------------------------------------------------------
   0.644E-11 0.735E-11 0.840E-11   0.285E-13 -.606E-13 0.365E-14   0.414E-22 -.165E-21 0.493E-21   0.157E-13 0.572E-13 -.373E-12


 POSITION                                       TOTAL-FORCE (eV/Angst)
 -----------------------------------------------------------------------------------
      1.49006      1.49006      1.49006         0.000000     -0.000000      0.000000
      4.47019      1.49006      1.49006         0.000000      0.000000     -0.000000
      1.49006      4.47019      1.49006        -0.000000      0.000000      0.000000
      4.47019      4.47019      1.49006         0.000000     -0.000000      0.000000
      1.49006      1.49006      4.47019         0.000000      0.000000     -0.000000
      4.47019      1.49006      4.47019        -0.000000      0.000000      0.000000
      1.49006      4.47019      4.47019         0.000000     -0.000000      0.000000
      4.47019      4.47019      4.47019         0.000000      0.000000     -0.000000
      2.98012      0.00000      0.00000        -0.000000      0.000000      0.000000
      2.98012      2.98012      0.00000        -0.000000      0.000000      0.000000
      0.00000      2.98012      0.00000        -0.000000      0.000000      0.000000
      0.00000      0.00000      2.98012        -0.000000      0.000000      0.000000
      2.98012      0.00000      2.98012        -0.000000      0.000000      0.000000
      0.00000      2.98012      2.98012        -0.000000      0.000000      0.000000
      0.00000      0.00000      0.00000        -0.000000      0.000000      0.000000
      2.98012      2.98012      2.98012        -0.000000      0.000000      0.000000
 -----------------------------------------------------------------------------------
    total drift:                                0.000000      0.000000      0.000000


--------------------------------------------------------------------------------------------------------



  FREE ENERGIE OF THE ION-ELECTRON SYSTEM (eV)
  ---------------------------------------------------
  free  energy   TOTEN  =      -102.80930300 eV

  energy  without entropy=     -102.80802220  energy(sigma->0) =     -102.80866260



--------------------------------------------------------------------------------------------------------


    POTLOK:  cpu time    0.1361: real time    0.1364


--------------------------------------------------------------------------------------------------------




--------------------------------------------------------------------------------------------------------


  
 reached required accuracy - stopping structural energy minimisation
     LOOP+:  cpu time  351.6610: real time  352.3836
    4ORBIT:  cpu time    0.0000: real time    0.0000



 total charge     

# of ion       s       p       d       tot
------------------------------------------
    1        0.465   0.423   8.397   9.285
    2        0.465   0.421   8.367   9.253
    3        0.464   0.418   8.402   9.285
    4        0.467   0.419   8.386   9.272
    5        0.467   0.419   8.386   9.272
    6        0.464   0.418   8.402   9.285
    7        0.465   0.421   8.367   9.253
    8        0.465   0.423   8.397   9.285
    9        0.336   0.327   4.898   5.561
   10        0.335   0.325   4.919   5.580
   11        0.325   0.314   4.927   5.566
   12        0.335   0.325   4.919   5.580
   13        0.325   0.314   4.927   5.566
   14        0.336   0.327   4.898   5.561
   15        1.264   1.835   0.352   3.452
   16        1.264   1.835   0.352   3.452
--------------------------------------------------
tot          8.245   8.965  97.297 114.507



 magnetization (x)

# of ion       s       p       d       tot
------------------------------------------
    1       -0.005  -0.002   0.237   0.230
    2       -0.005   0.005   0.262   0.262
    3       -0.006  -0.007   0.217   0.204
    4       -0.004  -0.006   0.224   0.214
    5       -0.004  -0.006   0.224   0.214
    6       -0.006  -0.007   0.217   0.204
    7       -0.005   0.005   0.262   0.262
    8       -0.005  -0.002   0.237   0.230
    9       -0.031  -0.063  -3.511  -3.605
   10        0.028   0.046   3.521   3.596
   11        0.028   0.035   3.549   3.612
   12        0.028   0.046   3.521   3.596
   13        0.028   0.035   3.549   3.612
   14       -0.031  -0.063  -3.511  -3.605
   15       -0.001  -0.032  -0.006  -0.039
   16       -0.001  -0.032  -0.006  -0.039
--------------------------------------------------
tot          0.006  -0.047   8.986   8.944


 total amount of memory used by VASP MPI-rank0   103557. kBytes
=======================================================================

   base      :      30000. kBytes
   nonlr-proj:       6835. kBytes
   fftplans  :       1269. kBytes
   grid      :       6573. kBytes
   one-center:        497. kBytes
   wavefun   :      58383. kBytes

  
  
 General timing and accounting informations for this job:
 ========================================================
  
                  Total CPU time used (sec):      362.314
                            User time (sec):      343.759
                          System time (sec):       18.555
                         Elapsed time (sec):      363.600
  
                   Maximum memory used (kb):      135580.
                   Average memory used (kb):           0.
  
                          Minor page faults:      8776805
                          Major page faults:            5
                 Voluntary context switches:         2324
